% Model:              VLR_3_01V03.mph
% Version:            COMSOL 5.5.0.292
% Date:               Jun 21 2020, 14:24
% Dimension:          2
% Nodes:              2539
% Expressions:        1
% Description:        Electric potential
% Length unit:        cm
% x                       y                        V2 (V)
-1.552260654301598        -0.7234444574457287      9.26717135434893+0.302772450033111i
-1.2990322911339665       -0.750010070993209       9.918615248605027+0.4348704685410183i
-1.409536313227687        -0.5130374076931423      9.944434971289066+0.29696449138706205i
-1.4080145515287197       -0.9825562807120608      8.97550071837725+0.4071668227361655i
-1.149063052439335        -0.9641857194123948      9.895117048998884+0.5602551563115145i
-1.653715385352272        -0.44365372818770643     9.55567989887897+0.18616800089994115i
-1.4772109886979958       -0.2604759007468612      9.971816026721818+0.15062486963980395i
-1.706865460231377        -0.15019672327589137     9.849662125495856+0.06296174535519818i
-1.5                      0                        9.999990406875712+2.9165585421930866E-6i
-1.7077273678048164       0.14934826616370178      10.149855572708136-0.06252921481811348i
-1.4772106593504082       0.26047776853607507      10.028165009615872-0.1506202738792423i
-1.2177230443922005       -1.207730892247174       8.727437742097713+0.4996030957818692i
-0.9642335055494975       -1.1490229531109146      9.874669713355214+0.6692244707697416i
-0.9960828789130498       -1.4016826143786791      8.472987447154294+0.5725308713471239i
-0.7500124149660692       -1.2990309378135554      9.857930360172364+0.758309563968324i
-0.7428702251814447       -1.5621295273628049      8.208931604721743+0.6236740112693893i
-0.5130398575996976       -1.4095354215180553      9.845500027908926+0.8243747399297793i
-1.6538665553413938       0.44460613649861525      10.445849753424618-0.186455256626283i
-1.4095354215180553       0.5130398575996976       10.055546183337-0.29696066644718505i
-1.5496859461349577       0.7243876121274141       10.728937834269933-0.30402602246468335i
-1.2990309378135554       0.7500124149660692       10.081366024211299-0.43486745881088473i
-0.46015988802563         -1.6639651806457074      8.084608734418895+0.664155539845837i
-0.26047776853607507      -1.4772106593504082      9.837842891616567+0.8650300936331102i
-1.4004948484752777       0.9813919215610145       10.999853431432483-0.4108614497603755i
-1.1490229531109146       0.9642335055494975       10.104869388444937-0.5602797445072693i
-1.211187264538621        1.2107724481373232       11.265460875671907-0.5027233906514548i
-0.9641857194123948       1.149063052439335        10.12531619225505-0.6692466188166774i
-0.16496871429487864      -1.7103800869001526      8.066728417792591+0.6896936961157443i
0                         -1.5                     9.835241292104028+0.8788270089616929i
-0.9793823959034933       1.403268078608687        11.487411477954767-0.5806133403761029i
-0.750010070993209        1.2990322911339665       10.142051502502007-0.758310031918113i
0.1349620297495264        -1.7086182894853001      8.096630572149747+0.694007961057645i
0.2604759007468612        -1.4772109886979958      9.83784269374408+0.865030694354377i
-0.718174373405812        1.5534042585606846       11.677260375722069-0.6387940256785077i
-0.5130374076931423       1.409536313227687        10.154481868453425-0.8243758194356593i
0.4328101096863419        -1.6550232483674112      8.19137054926018+0.6778971889037249i
0.5130374076931423        -1.409536313227687       9.845499875693369+0.8243750675798021i
-0.4345692480943007       1.6535402042332048       11.800573310785241-0.6784314372211493i
-0.2604759007468612       1.4772109886979958       10.162138999380641-0.8650312901498235i
0.7167542940646534        -1.5525132254805898      8.331815793856547+0.6398821413601247i
0.750010070993209         -1.2990322911339665      9.857930284978421+0.7583091503119818i
-0.1377422689895256       1.7077747338458646       11.898353294295068-0.6943891721539618i
0                         1.5                      10.164740374438686-0.878827568170764i
0.976967514593686         -1.4015705880469354      8.528621706314512+0.582455326958157i
0.9641857194123948        -1.149063052439335       9.8746656021778+0.6692458906980271i
0.2604733176110247        1.4772114441787627       10.162138863258038-0.86503113914504i
0.161706107764826         1.7076143213971688       11.910231589271428-0.6921413378455769i
1.2068054419300163        -1.209069630792634       8.754927313770885+0.5053417189508047i
1.1490229531109146        -0.9642335055494975      9.895112373197572+0.5602793442256851i
0.5130308300018143        1.4095387073321717       10.154481967285118-0.8243768199771567i
0.4574637222492577        1.656200797241926        11.855591908763307-0.6701442431154838i
1.3997257928581008        -0.9814775745769219      9.002030815006593+0.4112532554067246i
1.2990309378135554        -0.7500124149660692      9.918615764816598+0.4348669223677626i
0.7250194436934774        1.538179619409778        11.596154131480676-0.6440200346853288i
0.7500003944253057        1.2990378779550218       10.142052262543269-0.7583148068883134i
1.5504777024295635        -0.7259043186362496      9.266059212063256+0.3040490769778828i
1.4095354215180553        -0.5130398575996976      9.94443560947545+0.2969601994708079i
0.9752869957997262        1.3919387213327392       11.414932999171823-0.5866894490640128i
0.9641816539097096        1.149066463814838        10.12531710176731-0.6692520270683885i
1.6551938935266193        -0.445160144856996       9.551404657739676+0.18630051415747886i
1.4772106593504082        -0.26047776853607507     9.971816799291549+0.15061977043183306i
1.2078147999459277        1.2092085191280761       11.248711851684734-0.5047760600594272i
1.149066861522912         0.964181179939686        10.104864342815558-0.5602537109452123i
1.7066175656999305        -0.1490584237095729      9.850993244214267+0.06251071425097211i
1.5                       0                        9.99999138246541-3.3117119773469397E-6i
1.7054671235537955        0.15011933095501656      10.149533723278777-0.06305573091783821i
1.4772116647960043        0.2604720664305813       10.02816532805871-0.15062298218176892i
1.3969406173172643        0.9800574769493366       10.985754263739539-0.4125805192149122i
1.2990382497578632        0.7499997504439765       10.081365509562666-0.43486551441252425i
1.5462471130282491        0.7235450121047181       10.71936284308839-0.30523588190666867i
1.409539002854417         0.5130300180614935       10.055546055159496-0.29696090249067264i
1.6543523455932174        0.44642185293537856      10.449145550275661-0.1869632310538432i
-0.9965377364775745       -0.5119901962187896      9.935931299429088+0.3395835028152252i
-1.2008663059005218       -0.49791577134374276     9.937870230181153+0.3294474762900938i
-1.0807815042536755       -0.722434315397021       9.909649850650126+0.47895136549006617i
-1.2748903559257052       -0.2542726496649377      9.968322344524564+0.16798785027684746i
-1.0319755508591002       -0.2986993336941238      9.962647529737643+0.1979815363528308i
-1.127842537973944        -0.10191755939636227     9.987266660899111+0.0674735978072425i
-1.3                      0                        9.999990386430115+2.8807798497457787E-6i
-0.9192376674108731       -0.9192399636727167      9.884717829654637+0.6108745597669692i
-0.8319228040530704       -0.666498582512621       9.91640318472277+0.4429458370757055i
-0.7189976595822637       -0.8618054782722095      9.891713945907561+0.5736195681144285i
-0.7224316832899383       -1.080783263646725       9.864064648491373+0.7199943389348862i
-1.0664996676627645       0.10472812591542703      10.01307593451362-0.06937800285897973i
-1.2748902800748012       0.25427302997131845      10.031658516469873-0.1679825615795393i
-1.062896677181684        0.3387977857500095       10.04233089161095-0.22448434615196727i
-1.2008674665427264       0.49791297211385643      10.062110368831805-0.32944066067659544i
-0.49791297211385643      -1.2008674665427264      9.848570844498637+0.8017293570664877i
-0.510399172809512        -0.9339474656970057      9.882408646791704+0.6227117979966792i
-0.3309785191594261       -1.0518819784006919      9.867349983425646+0.7022810617464301i
-0.25427302997131845      -1.2748902800748012      9.838947712610068+0.8524296885520751i
0                         -1.3                     9.835661059153146+0.869728690227919i
-0.10538155234965872      -1.0659210831003534      9.865475519198176+0.7121145664934349i
-1.080783263646725        0.7224316832899383       10.090330865013678-0.47894556371684277i
-0.9395818995731745       0.5163281894979804       10.064639906312584-0.34266985523089244i
-0.8531621289884193       0.7147457534798374       10.089619546857747-0.474966576357155i
-0.9192399636727167       0.9192376674108731       10.115263150923198-0.6108702676062363i
0.09303996630995835       -1.109229376845453       9.85997716274267+0.7411938105089438i
0.2542726496649377        -1.2748903559257052      9.83894792835029+0.8524286799616126i
-0.722434315397021        1.0807815042536755       10.13591652161988-0.7199914555793013i
-0.6753386092608932       0.8357571304674056       10.105028681867893-0.556430481155605i
-0.5126260877670702       0.9848384949288346       10.124004570512126-0.6567526336769426i
-0.49791577134374276      1.2008663059005218       10.15141039242075-0.8017273284345032i
0.49791577134374276       -1.2008663059005218      9.848571360706364+0.8017265168140449i
0.30441895262960145       -1.0265167154650547      9.870548615330897+0.6853450049338764i
-0.2542726496649377       1.2748903559257052       10.161033705173066-0.8524292560234249i
-0.3053391794608046       1.0335196511967168       10.130319857633445-0.6900374901108483i
0.5084580515760682        -0.9864169887835698      9.875773699759067+0.6578255444626703i
0.722434315397021         -1.0807815042536755      9.864065246994095+0.7199905766516387i
-0.10393032726764048      1.1209472354201107       10.141489893690586-0.749052033090697i
0                         1.3                      10.164320539324848-0.8697289868870596i
0.9192399636727167        -0.9192376674108731      9.884718563395172+0.6108695333471711i
0.6368844629499694        -0.8395735824827906      9.894435358356377+0.5591403284533493i
0.2542774865505297        1.274889391215389        10.161033615348078-0.8524288670403487i
0.10931980786731789       1.064593217881322        10.134336773763652-0.7112199052672671i
1.080783263646725         -0.7224316832899383      9.909650874443537+0.47894501481094004i
0.8095056677279252        -0.6838518544522508      9.914202129181474+0.45458843942508903i
0.3316141418675122        1.0762888869531588       10.135724854869764-0.7186454473290824i
0.4979217638008312        1.2008638212276481       10.151409981221029-0.8017259650217436i
1.2008674665427264        -0.49791297211385643     9.937871417395584+0.32944020439586386i
0.9467820609760702        -0.5052548130729154      9.93673542432655+0.3352883717704382i
0.7224441620852138        1.0807749222983452       10.135915866437237-0.7199887303119595i
0.506476331786558         0.9410708427980866       10.118476498987834-0.6274913432674184i
1.0596055206129462        -0.3394856756542466      9.957562916558198+0.22494870793794117i
1.2748902800748012        -0.25427302997131845     9.96832328129417+0.16798210754396645i
0.7153895190447785        0.8566739894903068       10.107624799038948-0.5702122208279501i
0.9192416125180489        0.9192360185584644       10.115263493976054-0.6108728693430938i
1.0807768060422045        0.7224413440004743       10.090332882681729-0.47895697006642574i
0.8313272910502476        0.6678774959315521       10.083752420030757-0.4438669578184795i
0.9847230645340913        0.5050330166939598       10.063188826606416-0.33500924502802015i
1.2008648344332253        0.4979193201932035       10.062112058664187-0.3294505969146017i
1.3                       0                        9.999991400886632-3.3151617855808188E-6i
1.0610299183128573        -0.12096244923492275     9.984876220006187+0.08013784756624082i
1.1000394500664892        0.08964047751280829      10.011186629720354-0.059365496506074346i
1.2748898793617054        0.2542750390838555       10.031659749720417-0.1679899833012574i
1.0224128903168839        0.29599006887008583      10.037000201065169-0.19620736841054184i
-5.135141345260304        -3.183172678613971       1.1164262526700237+0.0010305887807441122i
-5.048350356480576        -3.167068217240236       0.7791183755262566+7.166506755647232E-4i
-5.120714245373296        -3.099693863180341       0.9817838777793161+9.789207275876473E-4i
-5.099194101091518        -3.2511058527979997      1.0753426889115092+9.432340132865673E-4i
-5.001043604488205        -3.2606355011092365      0.8266603377165301+7.066947588751085E-4i
-4.939202554211195        -3.1610910312153564      0.45131633558823575+3.949773866681984E-4i
-5                        -3.05                    0
-5.112154662726014        -3.000204125917428       0.9362494892996837+0.001069031331641241i
-5.194483891286156        -3.246804639967034       1.3568400940162506+0.001199094154621014i
-5.213133815142219        -3.1513609355441616      1.3848355937686465+0.0013075574394244567i
-5.219737114616886        -3.0538173468500434      1.433452434695749+0.0014720412882971588i
-7.619002805990894        -4.597637000988644       3.5635516651684624+0.0020030134022770217i
-8                        -4.411764705882353       3.6545555376477785+0.002029519479547589i
-8                        -5                       3.5592524708648194+0.002000983706729984i
-5.161955405800733        -3.327014032524763       1.31723933623565+0.0011126808855939814i
-5.24821527894247         -3.328457525392978       1.5387138710255739+0.0012960681896867032i
-5.067635791987091        -3.3635499414795276      1.1241577085001773+9.276706150698667E-4i
-4.883910634516916        -3.271382300000161       0.619711104753731+5.09869483055615E-4i
-4.967968188641937        -3.3496156639221413      0.8997026422868295+7.356823243432734E-4i
-7.406567705706927        -5                       3.463004453248279+0.0019704181698559143i
-4.814072906560321        -3.1688854201784737      0.30834873748424957+2.537222258828207E-4i
-4.887808936663978        -3.05                    0
-5                        -2.95                    0
-5.216004535167777        -2.950557338521652       1.5455809446126496+0.0017598994501622884i
-5.118793797810839        -2.8989547166405383      1.21656197596848+0.0015935408155484424i
-5.312530423643681        -3.2347898842942224      1.7009379231099395+0.0014947821340308284i
-7.576680320415428        -4.104671764027654       3.7296934067621037+0.002055138757322671i
-8                        -3.823529411764707       3.9443377457239834+0.002105002785382411i
-5.327785202622831        -3.121557065713345       1.783604469385877+0.0016754352263325149i
-5.321131974967164        -3.0123051727642314      1.8578495374975204+0.001890425332093333i
-7.111766003832118        -4.47174853503321        3.416991414481367+0.0019612606929583303i
-5.372056446942942        -3.3775393504146463      1.8417172098601922+0.001496531222410895i
-4.761509782189803        -3.300040433725267       0.5181337426093595+4.0995528446009457E-4i
-5.20005023193799         -3.4561397361072292      1.4801133352620108+0.001182113867529978i
-5.016872827346368        -3.4835492600807205      1.1427335589050218+8.988461099379554E-4i
-4.870637679803702        -3.410722868156584       0.8225274132442221+6.490348412491199E-4i
-6.813135414064489        -5                       3.180116637657161+0.0018701288933264438i
-4.686071676264805        -3.176262613483986       0.24145483932153214+1.905635962183485E-4i
-4.620961795701317        -3.3123320813657173      0.4205508861696386+3.227954151867524E-4i
-4.755792612389566        -3.05                    0
-4.548141061617621        -3.176317745634458       0.18854425762754345+1.4431923723108456E-4i
-4.482578343176616        -3.2957658991609096      0.3221428301740014+2.4228254850915096E-4i
-4.407208147122166        -3.1735463064248606      0.1497643143279075+1.1211491228017296E-4i
-4.334202434575737        -3.295546154170961       0.26487063917077697+1.9568799656663924E-4i
-4.266055599190017        -3.1736505993552035      0.1250298431886555+9.207434664816173E-5i
-4.888041601602852        -2.95                    0
-4.9353850045533045       -2.8335911689093414      0.8286485909554869+0.001549136730010178i
-5.3123551901864605       -2.8878095572870013      2.0304054349511027+0.002275034354812643i
-5.044659716557285        -2.8253462973257046      1.2006758061962322+0.0018775329842990807i
-5.2120061151017865       -2.8500588566082783      1.7642126704858037+0.002209730487657281i
-5.134752622747733        -2.8104795384922996      1.5994670617549622+0.002246132041708713i
-5.4477073144129795       -3.216804379962168       2.0678664999551812+0.0017768846323016113i
-5.6094686562884535       -3.3764598252883715      2.341656210282952+0.0018149853265176147i
-7.114083095377115        -3.845854182060524       3.699008567992987+0.002074985974353099i
-6.700027311426602        -4.079699790410581       3.30739592337745+0.001956351184984883i
-7.547026529713584        -3.5401193764262997      4.094797112224+0.0021522179059660393i
-8                        -3.2352941176470598      4.435904589286179+0.0021931022365739017i
-5.452470572954058        -3.060264674865241       2.203765283335772+0.0020475725826363876i
-5.39950963127895         -2.944129390107674       2.2037473239491603+0.0022479478154000844i
-6.24615472624887         -3.645473011615922       3.1238779368633023+0.002002340808370671i
-6.280737408460875        -4.010413658184879       2.9717445570757617+0.0018565175167154482i
-5.906261640475499        -3.6745792704997213      2.6816859543159066+0.0018312358632864725i
-6.502860787513182        -4.507910659515894       3.0148667696478846+0.0018175744635524304i
-5.414366776432081        -3.6525847514429084      1.924450780073668+0.0014249810054768508i
-4.713857793803708        -3.4562060413798488      0.6889860861053309+5.261330078778731E-4i
-5.108192663352322        -3.69617989568689        1.4337742209658362+0.0010686720897234209i
-4.860913231483446        -3.6001934423367805      1.0120871029920695+7.642123842943088E-4i
-4.195429694179967        -3.300721133362113       0.22942210804461602+1.6734175735602435E-4i
-4.126977915015427        -3.1721067350206322      0.10511985969246938+7.647920011217477E-5i
-4.058081586929798        -3.291656911867736       0.1906894626365794+1.3778507033771045E-4i
-3.984354125684851        -3.173284091187637       0.09111781159372105+6.566573324638703E-5i
-4.543551930360913        -3.4490357302474286      0.5353011617312733+4.005197290192824E-4i
-4.405477489428128        -3.4121319802905385      0.4132034668874618+3.055395830649206E-4i
-4.269428003783316        -3.4327480116116353      0.3698347113774783+2.69900885313697E-4i
-3.90516150116026         -3.3018221678107404      0.1698443332597179+1.2169228689535109E-4i
-6.221968789466947        -5                       2.734429233057499+0.0016829848511703404i
-3.841347066451085        -3.177184687116542       0.08141344358331622+5.824506576264323E-5i
-3.7738872983265934       -3.3098492768696737      0.1542341840224105+1.0989308292793955E-4i
-3.7072428700222475       -3.17588356911059        0.07087511139186044+5.0437416612699686E-5i
-3.6455991278242577       -3.2943981823137056      0.1289002500205945+9.146621699936446E-5i
-4.615951899130199        -3.05                    0
-4.476074568853527        -3.05                    0
-4.336197238576853        -3.05                    0
-4.196319908300181        -3.05                    0
-4.056442578023507        -3.05                    0
-3.916565247746834        -3.05                    0
-4.756310846315618        -2.95                    0
-4.814468520960421        -2.834020747849687       0.6587273186965631+0.0015109500413974187i
-4.616459914096865        -2.95                    0
-4.68528175238141         -2.8289106035609404      0.6025035439440661+0.0016802389455299897i
-4.87734420728848         -2.7140996445066707      1.3587627815977374+0.002901836660797501i
-5.432188213596251        -2.8202972796596746      2.519264197698987+0.0026916182631260763i
-4.98975626939159         -2.7206593971700537      1.5439974501542741+0.0027930074262270174i
-5.314304760083927        -2.7735219311864694      2.298960321326937+0.00276635495926292i
-5.096168047160958        -2.7315691792756653      1.7779502985606366+0.002767070679585962i
-5.204410399352158        -2.741922099883305       2.0636074080245286+0.002813500285534396i
-5.632843242272216        -3.1373958556133155      2.560829887343996+0.002136280725081624i
-5.894911243335028        -3.2532675512632308      2.941844636443996+0.002167483105536196i
-6.587087469594543        -3.6096138432815836      3.4922103681220227+0.002097494902262601i
-6.218523154152893        -3.3536636421075507      3.3112771923968443+0.0021838379795550227i
-7.05993604269343         -3.2725686296595815      4.133176625373+0.0022369548327516833i
-7.530595970708659        -2.95683079243662        4.676120897068281+0.0022505935213984925i
-8                        -2.647058823529412       5.129556178950172+0.002228670903027005i
-5.576537978944186        -2.9143973234394878      2.710804919519095+0.0025311908161130994i
-4.94379423536546         -2.603510503400961       1.9677608957203379+0.0039409028780970174i
-5.6864091442646165       -4.052421908932885       2.284865711608635+0.0015351606824885653i
-5.9345980552786575       -4.516150798125048       2.499132796087142+0.0015875656969868569i
-5.263791285337929        -3.968275974927772       1.7359882126522648+0.001222792282925123i
-5.041619652328673        -3.894465618667976       1.4255463568443285+0.00102441545834355i
-4.643803783522424        -3.628011703933974       0.7949132232224906+5.8796070889458E-4i
-4.834278330142093        -3.825353661822125       1.1399354369065513+8.277006337610593E-4i
-4.117832625585498        -3.4386183881465104      0.3182131423623907+2.298073190505976E-4i
-3.9847200733438157       -3.4040135331656343      0.25470522918516414+1.8281479841409298E-4i
-4.397626735244053        -3.5875641062617545      0.5689165252074825+4.1506266186460284E-4i
-4.195313857091088        -3.556321730521779       0.436061925484427+3.147570961256223E-4i
-3.8491501788189444       -3.455846473312904       0.2536774815676162+1.8081457256742596E-4i
-3.701110597761934        -3.434934761969863       0.2102502604137408+1.491862573285366E-4i
-3.575352798525741        -3.3980768999988054      0.17042919311355584+1.2057773991893978E-4i
-5.633047382546035        -5                       2.178619427927835+0.0014043758169847058i
-3.4988884443082133       -3.297130981804691       0.11413388149340155+8.067335846180988E-5i
-3.5691252228678985       -3.1738692683636196      0.06139978151511254+4.350697705592229E-5i
-3.776687917470161        -3.05                    0
-3.6368105871934877       -3.05                    0
-4.4765671894272625       -2.95                    0
-4.548781732170915        -2.8272654619917237      0.5611286431733076+0.0018893309914365774i
-4.752940016663753        -2.7067285599605317      1.2399860750977505+0.003171232492498771i
-4.619535452321062        -2.7032217670412755      1.1528442983798313+0.0035402205297671327i
-7.526586013154269        -2.3668390479092416      5.470807646949553+0.002262498044039251i
-8                        -2.0588235294117663      6.009025745051324+0.0021224630932445616i
-4.827408352275194        -2.5862471613065123      1.8671273145810685+0.004378281833861317i
-5.542838376633375        -2.7462864948474257      2.9335453000520393+0.002984134260995471i
-5.426941310899485        -2.6910845111536443      2.7909996327288504+0.0031708431910027132i
-5.064888915426784        -2.617908572517962       2.145956302015733+0.0036607129491073903i
-5.298319487109692        -2.6489396267177194      2.593747350016608+0.0033677422404480403i
-5.176731809035831        -2.6218258942315447      2.3861999724212097+0.003559839183901152i
-5.84499101096725         -2.962074989539479       3.1805073224723834+0.0025457463152392394i
-6.097561778585094        -3.0564346872388635      3.456430106213921+0.002442724435865526i
-6.523445136252592        -3.0042431261629274      4.017259104109602+0.0024387465915772437i
-7.050027238690676        -2.6791047594481228      4.834931958233166+0.002408322699696296i
-5.736880091800763        -2.7279461530543303      3.354417985860423+0.0030076237127412303i
-5.017556529744814        -2.5228931444806735      2.417203079827326+0.004490082277157266i
-4.916045237923663        -2.4764297794807804      2.4359122117310315+0.005169544117339103i
-5.319539215208882        -4.441319890518911       1.8514791910139647+0.0012393219576184048i
-4.9731089513542726       -4.102207368578296       1.4150909915682706+9.913216959983628E-4i
-4.532628245570356        -3.83387835976767        0.8483520189325512+6.101199905593764E-4i
-4.6880184378236605       -4.032083585794215       1.093305672420025+7.738930691005739E-4i
-3.9987428898361856       -3.594899682388751       0.381838747973986+2.726886246890835E-4i
-4.209311863810573        -3.783967609559923       0.5938150672860038+4.238707870039674E-4i
-3.4466546566311513       -3.440166755752054       0.16961224849548806+1.1961189710021305E-4i
-3.363587180268895        -3.3085615017331023      0.10591713833725531+7.465063771899832E-5i
-3.580584635942415        -3.5413224214469485      0.23690774671566275+1.6732714202850025E-4i
-3.772318340047917        -3.6102042507827967      0.3167545256627747+2.24477761483366E-4i
-3.2877193180466535       -3.448025419534967       0.15068982835286152+1.0597726868010253E-4i
-5.044125975625123        -5                       1.598754847854513+0.0010687391465423572i
-3.225342293496131        -3.2960489972496383      0.08955667045078113+6.298003795641814E-5i
-3.14872330000884         -3.4004042073208702      0.11849321853765934+8.32033150933495E-5i
-3.4292791297873064       -3.1758044839204573      0.0550176487018827+3.885100144662295E-5i
-3.29008114538507         -3.1752890519559838      0.04852085454804578+3.417118639807576E-5i
-3.496933256916815        -3.05                    0
-4.336674464757661        -2.95                    0
-4.4095066162387715       -2.8259008575520905      0.5360285377278448+0.0021603752805067736i
-4.484347448163665        -2.706517544053731       1.0712208312411784+0.003921883991505314i
-4.196781740088059        -2.95                    0
-4.269133839045938        -2.822698406606438       0.5285305095027882+0.002530303456746093i
-4.056889015418456        -2.95                    0
-4.128109847263144        -2.82029180102103        0.5236509089144797+0.002959433639342366i
-3.916996290748854        -2.95                    0
-3.987771921324992        -2.8192999551095252      0.5173998621093707+0.0034297234150129836i
-3.7771035660792514       -2.95                    0
-3.8500651866211286       -2.820918316811292       0.5042593951398285+0.003890866207414929i
-3.637210841409649        -2.95                    0
-3.708574225301696        -2.8232790914015466      0.4907227914260282+0.004406861642411189i
-7.527468951146645        -1.7759839251272975      6.445815518519019+0.00207816311914292i
-8                        -1.4705882352941193      7.040802353997986+0.0017929097511104619i
-4.692973904039122        -2.574322254233316       1.7728500332979353+0.004965735868828644i
-4.552374044319767        -2.5760133932501788      1.6599666085428881+0.005565463899561115i
-7.051219921730468        -2.0833781236173476      5.7648165275365075+0.002439396878921245i
-4.7808263054278335       -2.4428188394608354      2.399852069237527+0.006041038050101157i
-5.562544624371656        -2.5764061128075033      3.3388455871247387+0.003514240983923097i
-5.397872513554422        -2.571812028631125       3.025837827326111+0.00367331178545766i
-5.127311852764764        -2.4963286851129673      2.711217420361502+0.0044477622255369225i
-5.26965612973233         -2.4934712952202274      2.990480586813915+0.004203450022503773i
-6.088372362636003        -2.668706386187764       3.9951084087816997+0.002931235356283681i
-6.562607907415519        -2.389609935217027       4.948548107579955+0.002791948786166651i
-5.757904753901095        -2.4271696608646693      3.9904484655898576+0.003682426737734412i
-5.034424875124238        -2.3866783529752835      2.939077338342376+0.005462940388535232i
-4.892261129604442        -2.316430675260417       3.0031419816373917+0.006616990865352249i
-4.705008987722529        -4.448808435388618       1.2392276315280906+8.516939002182583E-4i
-4.376363957824626        -4.100806141169402       0.8630670329714513+6.069654693441847E-4i
-3.906530105493423        -3.823961055358173       0.46811818426941026+3.309155287145027E-4i
-4.0826781957631795       -4.0312626394177595      0.6458898004945763+4.5453148704617064E-4i
-3.386878406099778        -3.618304490319647       0.2286600118912447+1.6079347838686536E-4i
-3.6001837983469356       -3.7933224834829806      0.3467478631226922+2.4397360048431391E-4i
-3.1547964643329327       -3.5913340912867677      0.17979239465007182+1.2610557562892482E-4i
-3.0112327865792077       -3.4518328858033347      0.12051491481741429+8.447816439955757E-5i
-4.453011317849747        -5                       1.090283529842384+7.45378017632714E-4i