% Model:              VLR_3_01V03.mph
% Version:            COMSOL 5.5.0.292
% Date:               Jun 21 2020, 14:26
% Dimension:          2
% Nodes:              1174
% Expressions:        1
% Description:        Electric potential
% Length unit:        cm
% x                       y                        V2 (V)
-1.403535348135416        -0.9826986047501887      9.748756771111628+0.1253434286763265i
-1.149063052439335        -0.9641857194123948      9.974448418237232+0.16195351019660542i
-1.2990322911339665       -0.750010070993209       9.980184258319825+0.12495563809219827i
-1.5510187119923209       -0.7241193734646466      9.826228357188272+0.0920960575929488i
-1.409536313227687        -0.5130374076931423      9.986470146891683+0.08492891992380414i
-1.2129717005727843       -1.2114403481133835      9.666673964609124+0.15519071095534107i
-0.9642335055494975       -1.1490229531109146      9.969442025317955+0.19475445242182896i
-0.9850103935519012       -1.4066012878202867      9.578244076256539+0.1805541546545308i
-0.7500124149660692       -1.2990309378135554      9.965330859950619+0.2221458523810843i
-0.7243727955276784       -1.5553000095412024      9.501356437314369+0.2009744875636175i
-0.5130398575996976       -1.4095354215180553      9.96226960247076+0.24286753537392955i
-1.6537448551545537       -0.4452404112770388      9.897094644735718+0.05636309421830323i
-1.4772109886979958       -0.2604759007468612      9.99312325409954+0.04294705952388169i
-1.7071084882984058       -0.15145686495106675     9.965560455866367+0.01910356084496628i
-1.5                      0                        9.999962210776772-4.683360404133855E-6i
-1.7084776292106072       0.14861057936589128      10.03384927582974-0.018728400224567236i
-1.4772106593504082       0.26047776853607507      10.00680119855556-0.0429566328949306i
-0.4437086920141479       -1.6542860716562684      9.444531097359205+0.21531967580553693i
-0.26047776853607507      -1.4772106593504082      9.960379953212678+0.25581977579371i
-1.6549766499659284       0.443892258746717        10.102799432897937-0.0561445379731964i
-1.4095354215180553       0.5130398575996976       10.013454268377078-0.08493829439566485i
-0.1510121656341592       -1.7045062785719427      9.412652113629482+0.22272207467552985i
0                         -1.5                     9.959737090655219+0.2602533279308187i
-1.5519654672396666       0.7249003700135762       10.174604113546222-0.09207381632744814i
-1.2990309378135554       0.7500124149660692       10.019740066648886-0.1249645128405314i
0.14636756980544618       -1.7068150963215594      9.40768125422956+0.22249302580073368i
0.2604759007468612        -1.4772109886979958      9.960379636760315+0.25582203652910734i
-1.403690500888047        0.9847018353434757       10.252868999366086-0.12541753098682698i
-1.1490229531109146       0.9642335055494975       10.025477027965556-0.16196965449673786i
0.4429348460075852        -1.6578227710025724      9.43684395444761+0.21491551048541788i
0.5130374076931423        -1.409536313227687       9.962269027455672+0.24287162808343707i
-1.2105946125363325       1.2124275386471441       10.33261169884999-0.15551610677591057i
-0.9641857194123948       1.149063052439335        10.030483065805385-0.1947685522308834i
0.7221611897758463        -1.5521420836308781      9.508844504375558+0.20152127968969977i
0.750010070993209         -1.2990322911339665      9.9653300416648+0.22215149445306923i
-0.9827230600444933       1.4055207099629388       10.418343059860446-0.18091269667207657i
-0.750010070993209        1.2990322911339665       10.034593017382353-0.22215184077678204i
0.9800623677740001        -1.4033535666977897      9.586875969998374+0.18136962242307694i
0.9641857194123948        -1.149063052439335       9.969440001506388+0.1947682019780181i
-0.7245086379743805       1.5535541819146605       10.495288862358017-0.20113194243011637i
-0.5130374076931423       1.409536313227687        10.037654046563112-0.24287209311004898i
1.2087048990545184        -1.2124765875507362      9.668664285126551+0.15577115735941785i
1.1490229531109146        -0.9642335055494975      9.974446047468065+0.16196924442849997i
-0.4450924591992937       1.6583574048693774       10.56519955055085-0.21469232525560686i
-0.2604759007468612       1.4772109886979958       10.039543453624377-0.25582266889214306i
1.4023710510050122        -0.9845242245501808      9.748070542512837+0.12557323697980696i
1.2990309378135554        -0.7500124149660692      9.980183012593912+0.12496398287648597i
-0.14968676091764965      1.7092289320866043       10.598668997866163-0.22204840765368974i
0                         1.5                      10.040186032512588-0.26025430056668225i
1.5502941494082503        -0.7241901534051318      9.826554490012567+0.09218138012611206i
1.4095354215180553        -0.5130398575996976      9.986468828459483+0.08493760530226042i
0.15060159420956493       1.7113148185574492       10.603892714250845-0.22171521828135984i
0.2604733176110247        1.4772114441787627       10.039543205827066-0.2558210803857378i
1.6528486627877335        -0.44414318938649516     9.8977414237209+0.0563079736964835i
1.4772106593504082        -0.26047776853607507     9.993121911338559+0.04295578796120023i
0.44526159280748034       1.6532991526981338       10.553827673871048-0.21533776370101718i
0.5130308300018143        1.4095387073321717       10.03765363534793-0.24286942552071386i
0.7239425903514096        1.5512099329309823       10.490380342425512-0.20141641414540934i
0.7500003944253057        1.2990378779550218       10.034592478424798-0.22214851777545794i
1.7099380786151819        -0.1500161230155815      9.96557283332965+0.01886956268316894i
1.5                       0                        9.999960925082675+3.603995091873181E-6i
1.705547120084526         0.14875304654047525      10.033546018881585-0.018802625229863482i
1.4772116647960043        0.2604720664305813       10.006799791821834-0.042947669166133275i
1.6537031542372378        0.4445554937352897       10.102589367215556-0.05629183201553767i
1.409539002854417         0.5130300180614935       10.013452821229432-0.08492911482276255i
0.9805706197112867        1.4013331215950204       10.410305599110272-0.18140334369185515i
0.9641816539097096        1.149066463814838        10.030482322717988-0.19476385072778077i
1.5483970600894963        0.7220049954191233       10.171240769721154-0.09218490407056688i
1.2990382497578632        0.7499997504439765       10.01973863339981-0.12495540342276919i
1.2124313688824433        1.2125635461788675       10.334125646223768-0.15526288154629306i
1.149066861522912         0.964181179939686        10.025474624954768-0.1619542626576048i
1.401082926171194         0.9792770104123          10.246838084738927-0.1255011304752365i
-0.9965377364775745       -0.5119901962187896      9.984362540617596+0.09807841807199409i
-1.2008663059005218       -0.49791577134374276     9.98485436326429+0.09447569591588885i
-1.0807815042536755       -0.722434315397021       9.977968710753549+0.13810272432664658i
-0.9192376674108731       -0.9192399636727167      9.971864659060842+0.17732867705255018i
-0.8319228040530704       -0.666498582512621       9.979586122223546+0.12866039297432633i
-0.7189976595822637       -0.8618054782722095      9.973546947296729+0.16734463036575625i
-0.7224316832899383       -1.080783263646725       9.966789021366825+0.21047996291842466i
-1.2748903559257052       -0.2542726496649377      9.992265613230407+0.04800106643085991i
-1.0319755508591002       -0.2986993336941238      9.990871646979597+0.05707097460590405i
-1.127842537973944        -0.10191755939636227     9.996866767315613+0.01937823540663136i
-1.3                      0                        9.99996220218663-4.629787827368775E-6i
-0.49791297211385643      -1.2008674665427264      9.962967563842748+0.23584174364078417i
-0.510399172809512        -0.9339474656970057      9.971251546810146+0.18257922504253174i
-0.3309785191594261       -1.0518819784006919      9.96755264636675+0.20671162173151753i
-0.25427302997131845      -1.2748902800748012      9.960587224082074+0.2518451054186571i
0                         -1.3                     9.959772788584864+0.25735908732107377i
-0.10538155234965872      -1.0659210831003534      9.967083812000427+0.2100054210500952i
-1.0664996676627645       0.10472812591542703      10.003146628377669-0.019976061007256726i
-1.2748902800748012       0.25427302997131845      10.00765877979325-0.048010278533823836i
-1.062896677181684        0.3387977857500095       10.010267392733812-0.06466241744769492i
-1.2008674665427264       0.49791297211385643      10.01506989259552-0.09448394201386652i
0.09303996630995835       -1.109229376845453       9.965736361362044+0.2187082872792941i
0.2542726496649377        -1.2748903559257052      9.960586895599358+0.2518474678475395i
-1.080783263646725        0.7224316832899383       10.021955435794501-0.13811039585032733i
-0.9395818995731745       0.5163281894979804       10.015710284862832-0.09915365147524298i
0.49791577134374276       -1.2008663059005218      9.962967010230171+0.23584569784518564i
0.30441895262960145       -1.0265167154650547      9.96833378704254+0.20173015843861422i
-0.8531621289884193       0.7147457534798374       10.021809648429652-0.13793269331092115i
-0.9192399636727167       0.9192376674108731       10.028059354593934-0.1773355168298241i
0.5084580515760682        -0.9864169887835698      9.969627724897675+0.19298947329594685i
0.722434315397021         -1.0807815042536755      9.966788234626913+0.210485318586361i
-0.722434315397021        1.0807815042536755       10.033134821889902-0.21048572080609915i
-0.6753386092608932       0.8357571304674056       10.02559031163318-0.1624653016811292i
0.9192399636727167        -0.9192376674108731      9.971863686259107+0.17733512259559606i
0.6368844629499694        -0.8395735824827906      9.974202512633441+0.16339926667811547i
-0.5126260877670702       0.9848384949288346       10.030245199103293-0.19265768351356624i
-0.49791577134374276      1.2008663059005218       10.036956068850598-0.23584619765305956i
1.080783263646725         -0.7224316832899383      9.977967624812074+0.13810990954053684i
0.8095056677279252        -0.6838518544522508      9.979045889486798+0.13214341478736014i
-0.2542726496649377       1.2748903559257052       10.03933619205341-0.2518481964154875i
-0.3053391794608046       1.0335196511967168       10.031806373877528-0.20312604672524856i
1.2008674665427264        -0.49791297211385643     9.984853198399884+0.0944833023854959i
0.9467820609760702        -0.5052548130729154      9.984553020310637+0.09699144966676532i
-0.10393032726764048      1.1209472354201107       10.034550525163628-0.22105239648275082i
0                         1.3                      10.040150350482714-0.2573601532859124i
0.2542774865505297        1.274889391215389        10.039335875300761-0.2518461012698119i
0.10931980786731789       1.064593217881322        10.032797759105845-0.20973616472203263i
1.0596055206129462        -0.3394856756542466      9.98963408859245+0.06480284116674567i
1.2748902800748012        -0.25427302997131845     9.992264330165186+0.048009450504983016i
1.3                       0                        9.999960924658206+3.5863265917563575E-6i
1.0610299183128573        -0.12096244923492275     9.996282414808627+0.023077329371491543i
0.3316141418675122        1.0762888869531588       10.033127925051392-0.21158889393334754i
0.4979217638008312        1.2008638212276481       10.036955437025252-0.2358421927229252i
1.1000394500664892        0.08964047751280829      10.002685006014984-0.017066169524021752i
1.2748898793617054        0.2542750390838555       10.007657601605285-0.04800277320374121i
0.7224441620852138        1.0807749222983452       10.033133851600626-0.21047959853561704i
0.506476331786558         0.9410708427980866       10.028892918506449-0.18400738993423696i
1.2008648344332253        0.4979193201932035       10.01506890649901-0.09447780400708362i
1.0224128903168839        0.29599006887008583      10.008970671277147-0.05657767865736817i
0.7153895190447785        0.8566739894903068       10.026219523605628-0.1663587464026109i
0.9192416125180489        0.9192360185584644       10.028058377267122-0.17732939300414427i
0.9847230645340913        0.5050330166939598       10.01535171301052-0.0967911748791977i
1.0807768060422045        0.7224413440004743       10.0219546673167-0.1381056146951398i
0.8313272910502476        0.6678774959315521       10.02037949623085-0.12893247070413605i
-7.620732461602964        -4.602304363092488       8.992311748051364+0.025414751847303102i
-8                        -4.411764705882353       9.00926778673905+0.02503678079613161i
-8                        -5                       8.991525209224628+0.025431184402738546i
-7.416745024377485        -5                       8.973959618068173+0.025819194782535557i
-7.565418256572764        -4.115593460750539       9.022179732613965+0.024754235471890387i
-8                        -3.823529411764707       9.06171495540469+0.023855749655263186i
-7.544156686776493        -3.5350654652972797      9.09017165959557+0.02322276862426009i
-8                        -3.2352941176470598      9.146626659594292+0.02189759044232802i
-7.1214990270645675       -4.484163648829542       8.965814722563932+0.026007387554564138i
-6.833490048754966        -5                       8.920465831760636+0.026984235937954376i
-7.531696500245358        -2.948064912506719       9.190316644452752+0.020898664020890228i
-8                        -2.647058823529412       9.260496495215158+0.01918755958611162i
-7.1061210562455335       -3.8367336098545026      9.02221429166323+0.024793214310162345i
-7.061702768860148        -3.251179480348358       9.106593188378682+0.022928283192219925i
-6.69112067078639         -4.100343731531555       8.947682987063969+0.026459592637502173i
-6.511944445455802        -4.532944542536431       8.887696739181592+0.027710459926610424i
-6.250235073132447        -5                       8.828661339047061+0.028925992119689412i
-7.529816498502171        -2.3599156274000532      9.318212775100655+0.017819010622081268i
-8                        -2.0588235294117663      9.398863483479177+0.01577779560261122i
-7.0616517664886596       -2.662274113826918       9.225659313876259+0.02017359508440902i
-6.594984711785284        -2.965286814101514       9.117231510286976+0.022884859743237864i
-6.53474522474536         -3.5563403811929684      8.998094974855212+0.02548252267944642i
-6.2065760345371705       -4.054911385990191       8.875692092015003+0.028088982053877665i
-5.9415981204895445       -4.526088544843773       8.778198316646682+0.030016091471242012i
-5.66698009750993         -5                       8.694223630595266+0.031631805090977454i
-6.162823480649353        -3.1375868290628177      9.021781474075434+0.025262488976341556i
-7.527632924686014        -1.7715005640288102      9.468415328747277+0.014062938951939151i
-8                        -1.4705882352941193      9.556637082894385+0.011757595709219045i
-7.05808507208422         -2.071764978371075       9.370437452205929+0.016662360817827532i
-6.593625047454768        -2.3774328702337884      9.256914029861079+0.019672793094803978i
-6.132714667771655        -2.6478702241867715      9.134026026829686+0.02290175610193573i
-5.919887850353653        -3.548340817461842       8.895854818259336+0.027977111683375522i
-5.6457996396591925       -4.04055881788079        8.754293834394199+0.030748606649885917i
-5.365548983025896        -4.52174434590865        8.623930498999927+0.03308722313915435i
-5.0837251218874115       -5                       8.510431309978493+0.03505541462788337i
-5.654115354039           -3.0010099574222253      8.962632609188383+0.027120037877704114i
-7.525259778534514        -1.181964895325242       9.635839230709754+0.009731671652021746i
-8                        -0.8823529411764723      9.728385047160533+0.007258866101121112i
-7.524401846229602        -0.5911716071396363      9.815019842582911+0.004975989625047896i
-8                        -0.29411764705882604     9.908536864383493+0.0024536446701512453i
-7.052870426037196        -1.4799577873075023      9.53572620810161+0.012465628208987655i
-6.583209123265152        -1.7800380323839995      9.422315768763193+0.01562127813328283i
-6.115778486355029        -2.0771657618182426      9.292351086365642+0.01926754961347407i
-5.660457622513197        -2.3815427479266016      9.139276378937332+0.023486482164671894i
-5.249241746201824        -2.634418878939028       8.984479833244228+0.02763115020735122i
-5.365235303152567        -3.536942872182474       8.768732150454563+0.031043783313787293i
-5.070820533650307        -4.040119803907917       8.584586809407822+0.03427754108748838i
-4.783374031556035        -4.522508194210061       8.415375587237788+0.03689055905071092i
-4.5004701462648935       -5                       8.26723329087214+0.03908055592739003i
-5.058354760236466        -3.078310863038124       8.802580299220793+0.03137045671171882i
-7.5237897342628175       -0.0017890020254301051   9.999450952116744+1.3377289921954355E-5i
-8                        0.2941176470588207       10.09149032088091-0.002457222931698813i
-7.049449847006276        -0.888524040094084       9.715475860376044+0.007722726944236779i
-7.048958450462714        -0.2986863831434661      9.903403384399121+0.0026362815195698375i
-6.576562327028852        -1.187257818634553       9.60480480695209+0.010877053135983224i
-6.102683255906965        -1.4872386672251616      9.478004051137132+0.01461315403592548i
-5.622575150852899        -1.7905594487523138      9.328321970310087+0.019132865058561623i
-5.10396037805803         -2.1090615675573634      9.138687227326228+0.0249028789446474i
-7.599916735850357        4.619435849778325        11.009243226774322-0.02545181818280271i
-8                        5                        11.008509776982859-0.025434541442853627i
-8                        4.411764705882343        10.990763445961695-0.0250401343518625i
-7.416745024377485        5.000000000000001        11.02607950116918-0.025822539868563504i
-4.769181943132963        -2.601975450137193       8.885361657298533+0.03116189681536269i
-4.773639494508092        -3.5635460709277975      8.581230441557423+0.035354904342339406i
-4.481616386105926        -4.0449323110483         8.355696017872406+0.0386674502854435i
-4.196568624151487        -4.526294135063423       8.139827467773033+0.041279818106874804i
-3.9172151706423755       -5                       7.9497011864759495+0.04346304044333791i
-4.478158321240739        -3.0942284586651674      8.621811185677378+0.036362236837690555i
-0.39743172113943126      -4.525851889888176       1.478068790505422+0.01703964399718834i
-0.4210293658738242       -4.589379190912233       1.6111636813659502+0.01824215096403996i
-0.34050839689200857      -4.580108560023401       1.073338362518582+0.01220134618456774i
-7.523544977774634        0.586635277415561        10.183609240114288-0.004942198520609841i
-8                        0.8823529411764666       10.271642494001387-0.007262425163465321i
-7.52314697820783         1.174371679404781        10.361978773556439-0.009677538342719895i
-8                        1.4705882352941124       10.44339123166978-0.011761130767288422i
-7.048892691146122        0.29020579703422006      10.093887425266528-0.0025652950521471915i
-4.517991968103481        -2.143013116913909       9.011865393051936+0.03012957497897528i
-6.573803807467335        -0.5956252590785192      9.798836256793239+0.00560129239821146i
-6.575842000191436        -0.007814376981234277    9.997361541097156+7.232718509116277E-5i
-6.098581115590634        -0.8941831152220756      9.680384258374898+0.009138165066983851i
-5.619508675378825        -1.19451439385014        9.542710065705725+0.01349433585060691i
-5.133081710743618        -1.4938813153547663      9.380710982157511+0.018915978472494i
-4.717283250982522        -1.7244753483741593      9.229097825197268+0.02428381568307202i
-7.52216638991525         1.7609265849893967       10.528868943174365-0.013997562793859669i
-8                        2.0588235294117583       10.60116562733909-0.015781297890035847i
-7.522289466830599        2.3438885043754385       10.678223451719278-0.017735587580031745i
-8                        2.647058823529404        10.739533224900589-0.01919102494940337i
-7.524175262313118        2.9253313031419625       10.805519510571829-0.02080402124816542i
-8                        3.235294117647051        10.85340385295158-0.021901005256840907i
-7.524747181762573        3.493132167071649        10.904466194953825-0.02310465420246743i
-8                        3.8235294117646963       10.938320181032447-0.023859153113698062i
-7.470925175085259        4.1107577861998745       10.98188911367842-0.024851139269419707i
-7.1119134797890435       4.574656756809408        11.039676837818787-0.02612749374231479i
-6.833490048754966        5                        11.079567555336908-0.026987548473542244i
-7.089769568319575        3.6695379183367396       10.95741054216428-0.024351849809420918i
-0.4919024560465333       -4.523351615256699       2.0619263377896186+0.0235774773562395i
-4.196509517668655        -2.6190768229762553      8.720628711765412+0.03705679164465841i
-3.609524940288231        -4.537184093579059       7.779998559154268+0.045905386494309273i
-3.3339601950198574       -5                       7.535362594823954+0.04774397163873905i
-4.178811639786204        -3.5650551153085512      8.345537913227417+0.040588545416320836i
-3.8862217606106024       -4.051676690836474       8.05553837927755+0.04374082567147824i
-3.882334612000148        -3.066107144762762       8.409247814773371+0.04269983785365402i
-0.42045299332652997      -4.453438544998425       1.7607931496076221+0.020692128779437453i
-0.33882452556810655      -4.491620843868633       1.052370128309202+0.012338108837419802i
-0.5207291496133101       -4.6611301322479886      2.1221765508307517+0.02356354519578863i
-0.37489059220207743      -4.679845001284605       1.4264495844123959+0.015895676273354763i
-0.25                     -4.55                    0
-0.28065530845633757      -4.63621311193536        0.8470941052546263+0.009484663053315346i
-0.6169754330856044       -4.824503614253785       2.4973004802836525+0.027036871950135277i
-0.7133423146011957       -5                       2.8326280776730193+0.03022095691023531i
-0.5039813647366937       -5                       2.089233808703763+0.02267132133607226i
-7.04845657558771         0.878410058255231        10.281407526153963-0.007642329914690827i
-7.047093377526756        1.465794875605308        10.460362837864038-0.012369165557510336i
-6.576890609436309        0.5805694817364583       10.196080760405096-0.0054627574634413005i
-4.012029311516954        -2.1326521659703386      8.902677966195553+0.035859785318239384i
-4.308987407261761        -1.6708373464681445      9.188753198815148+0.02749092352185128i
-6.103135934727423        -0.30766247707020494     9.889173200219+0.003202256103435362i
-6.107314574972256        0.28021081304370093      10.100920210944759-0.0029185212110305575i
-5.627806475177192        -0.6096206071410483      9.764394446680482+0.007107706937300693i
-5.1418344647627645       -0.9200381585864387      9.614940617739997+0.012239606764095164i
-4.5933283444266735       -1.224638975008183       9.435033217573377+0.019251323893968973i
-7.043162229511936        2.0490357201105445       10.624371345556112-0.0165421374659047i
-7.044504267593729        2.621376028539286        10.766248889100716-0.019990790045059745i
-7.053962791048367        3.1861528639273726       10.882319926019749-0.022682078383274615i
-6.842270181664241        4.075856154084609        11.0311152993501-0.025985557369543517i
-6.557647199446942        4.529421711785204        11.105038795034844-0.027556804841726613i
-6.250235073132447        5                        11.171380594227635-0.028929209562719712i
-6.5598050046781635       3.5273034034131276       10.993830420829548-0.025304412061251728i
-0.922843730854476        -5                       3.5332129655209443+0.036830962996831806i
-0.8270034828374          -4.81451508118854        3.252208485178133+0.03449181382947534i
-0.5300078772857131       -4.411104307288819       2.4668146287025476+0.028833875549387933i
-0.6343184427820127       -4.512999548218864       2.7524013143689667+0.031012114281959078i
-0.7187128223745244       -4.650525162741851       2.9518931775454216+0.03220408502406114i
-1.029791665230372        -4.804884920066729       3.897016050629471+0.040287352008825605i
-1.1381486889215449       -5                       4.1707540134692955+0.04222778093526305i
-1.2404615059051167       -4.802421164556148       4.477226085709835+0.044847831075119186i
-1.36245346869066         -5                       4.746673630315854+0.04640026014778254i
-1.6025204387176206       -5                       5.276831938045452+0.04945449244878209i
-1.4849845240409099       -4.781052312523231       5.061096886586703+0.048676014215001985i
-3.598053992261687        -2.5096919937590614      8.585145396037097+0.044592383529407406i
-3.6055079602505447       -2.00211870752375        8.878888480073332+0.04075362093113526i
-3.037646267374279        -4.569622152976563       7.31903060847726+0.050025673574533615i
-2.7716354828648626       -5                       7.011883857542995+0.05103460904498979i
-3.285275391557954        -4.075117726562312       7.657955528956641+0.04912578392132983i
-3.565481179415126        -3.5613967790462144      8.038527557183953+0.04696759030501548i
-3.2769930216284835       -3.047193698821319       8.14420718343215+0.050898971691785706i
-0.3562502282711212       -4.401484952243039       1.5111814043686846+0.018261285589942913i
-0.4492508200177754       -4.354449629546279       2.2358411704793326+0.02687744423770241i
-0.38011417603405734      -4.312415407077749       2.0707287980105593+0.02551547896906809i
-0.25                     -4.45                    0
-0.4118162126445165       -4.824747388539153       1.7195972243166158+0.018861342335745074i
-0.2563177272944251       -4.732161239872935       1.0350848542373596+0.011458101901896897i
-0.18157941589934193      -4.641112985969388       0.5067490978950547+0.005627630279550259i
-0.13528973144279788      -4.55                    0
-0.05382786485298841      -4.639072420824315       0.3543461148580364+0.003915080947170611i
1.1102230246251565E-16    -4.55                    0
-0.2946204148721918       -5                       1.425897691265521+0.015627309109932843i
-6.575853569618023        1.1690885683518002       10.389434581320943-0.010726561435182575i
-6.572671775322056        1.7610768007111217       10.5728369560959-0.015508798599923435i
-6.109495129618288        0.8688348244723825       10.310257358310826-0.008872043369577308i
-3.852203509223308        -1.6349605876073556      9.132510338443089+0.032613943887449044i
-4.129296047999638        -1.2949802358146598      9.349056778424092+0.02433377426918205i
-3.3734737488711004       -1.6208075425588209      9.064569210980522+0.04042096445506841i
-5.63759080867197         -0.021141134613367942    9.991822766115567+2.470059499200485E-4i
-5.644442694082908        0.565385190437596        10.218049767587095-0.006575706293848093i
-5.1662385306012375       -0.3203362587508303      9.865790981834055+0.004349667515238877i
-4.69328098306708         -0.6086197077148645      9.723262287637132+0.009710985916231587i
-4.197232690914261        -0.8385979696420591      9.58440712495379+0.01619140343155082i
-6.550936314279343        2.3407612223913743       10.737498728273641-0.0195730743397606i
-6.58195618690646         2.8863715052238494       10.867045938679498-0.02254476252360924i
-6.1545025500734125       3.1504206619828183       10.982334877423703-0.025358024928982963i
-6.26356066266645         4.043459347963295        11.112623038800406-0.027835708074004765i
-5.968923136949323        4.52002152947451         11.215262519656555-0.02988518082612755i
-5.666980097509931        5                        11.30582142502797-0.03163489541511361i
-5.964987597915899        3.576094261073346        11.100224707592742-0.027856449443016174i
-0.5259087713011241       -4.299069539522703       2.760860867309252+0.033158522870793634i
-0.9221043293808321       -4.6200169847396255      3.676948214043794+0.03921090377194148i
-0.6582137802403031       -4.323316966189945       3.1999103466410257+0.03733585792468239i
-0.7911460965479868       -4.469985615802304       3.407052265217691+0.037834612826326185i
-1.1255758931699886       -4.593038003889978       4.2895953997339555+0.04446283778896745i
-1.3336136520949067       -4.610182110500211       4.797749405671599+0.04791512904108731i
-2.525951002010783        -4.618130698649586       6.778735245531018+0.05253368909124833i
-2.2840743060005746       -5                       6.421403408571042+0.05233677310765375i
-1.9016150113691275       -5                       5.835553334303939+0.051606272563607614i
-2.0934301254067615       -4.660720782029804       6.194443439231918+0.05296386156380375i
-1.7477235927950332       -4.728596224179757       5.602332745173846+0.05137380970040969i
-1.5366164081444011       -4.509452204631911       5.299524818362781+0.05137318292142592i
-3.1861003006490987       -2.1170340243886665      8.706736905054482+0.04985311575928859i
-2.9263050491592395       -1.6652358948721313      8.970941882891568+0.051495173159158796i