% Model:              VLR_3_01V03.mph
% Version:            COMSOL 5.5.0.292
% Date:               Jun 21 2020, 14:29
% Dimension:          2
% Nodes:              2196
% Expressions:        1
% Description:        Electric potential
% Length unit:        cm
% x                       y                        V2 (V)
1.3975597248931402        0.9792650521516945       10.561509183111653-0.24299157565217974i
1.149066861522912         0.964181179939686        10.05208868949683-0.3182685660479347i
1.2990382497578632        0.7499997504439765       10.04046824803175-0.24722536261588757i
1.5478834455694948        0.7243216781543769       10.414378892346429-0.17914794652607505i
1.409539002854417         0.5130300180614935       10.027641966671396-0.1689218942759274i
1.6532225732202028        0.4444469805412262       10.254705548975833-0.1095012062944248i
1.4772116647960043        0.2604720664305813       10.0139973219633-0.0857146498329971i
1.7048943457188634        0.14945145655125314      10.085107630304291-0.03684407592607867i
1.5                       0                        9.99993494125352-1.5129856693609597E-5i
1.7050471014265993        -0.14986225372526812     9.914528738221904+0.03691071805566925i
1.4772106593504082        -0.26047776853607507     9.98587217768894+0.08568672657351i
1.6528431071871037        -0.44484615830307667     9.745225128743606+0.10961269054768785i
1.4095354215180553        -0.5130398575996976      9.972227103232916+0.16889661820868876i
1.2067525733894784        1.2060745329603901       10.699021975582435-0.2994048489723227i
0.9641816539097096        1.149066463814838        10.062145534508174-0.3798454206211203i
0.9800142471640478        1.396130279696611        10.817415569286881-0.3467084661630075i
0.7500003944253057        1.2990378779550218       10.070322950187155-0.42998459684043383i
1.5485642454772597        -0.7238793039226736      9.585174964552218+0.17891508380059826i
1.2990309378135554        -0.7500124149660692      9.95940032783806+0.24720314191639833i
0.727530543942857         1.5495970139866841       10.93625831747349-0.3816167131555462i
0.5130308300018143        1.4095387073321717       10.076359882924086-0.4670410303736399i
0.44605301266128206       1.6539548084291964       11.010383031427175-0.4065896210204291i
0.2604733176110247        1.4772114441787627       10.08006042660486-0.48977449983600824i
1.3985968233891881        -0.9806742573562072      9.434236980581444+0.24279203686562947i
1.1490229531109146        -0.9642335055494975      9.947777266740282+0.31826237027183335i
0.14942980781708287       1.7079835202115226       11.052472662548753-0.41899483571671486i
0                         1.5                      10.081314028441426-0.49747341668508427i
1.2071092083872477        -1.2077737371536554      9.296195335035769+0.2992326819982432i
0.9641857194123948        -1.149063052439335       9.937722887035779+0.3798242427097845i
-0.15127982919851696      1.709198197915998        11.05821811363649-0.41852108103346675i
-0.2604759007468612       1.4772109886979958       10.080059526763282-0.48976879381912153i
0.9799754088859804        -1.398944429963196       9.17402641283224+0.34634179850643293i
0.750010070993209         -1.2990322911339665      9.929544852112699+0.42996695538390034i
-0.4463774375311925       1.6549017360682177       11.014469283903212-0.40627366443933993i
-0.5130374076931423       1.409536313227687        10.076358033641299-0.46702952073843945i
0.7232910606847538        -1.5487816229491322      9.072404979461103+0.38269512769953135i
0.5130374076931423        -1.409536313227687       9.923507070362467+0.4670287624112695i
-0.725468628438513        1.5510905807738333       10.938786383116925-0.381728089627221i
-0.750010070993209        1.2990322911339665       10.07032023413795-0.42996737850902583i
0.4440682181871146        -1.6511679809926456      9.002549515346631+0.4076445434947534i
0.2604759007468612        -1.4772109886979958      9.919805604685127+0.4897677002555943i
-0.9814465305437738       1.4020817495291906       10.837810979157993-0.34555046113011123i
-0.9641857194123948       1.149063052439335        10.062142205043518-0.37982439884393243i
0.14964776965821747       -1.705960853718946       8.955977539327128+0.4196195111338246i
0                         -1.5                     9.918551140454998+0.49747201518428935i
-1.209183213517786        1.2110074563649078       10.715052056480827-0.2985517249051807i
-1.1490229531109146       0.9642335055494975       10.05208782229254-0.31826224361155503i
-0.15061924591659484      -1.70627326918615        8.954333290522145+0.4194751340142813i
-0.26047776853607507      -1.4772106593504082      9.919804883094063+0.48977223604344905i
-1.4015050070433888       0.9836641168823215       10.57563536838338-0.24222788615964722i
-1.2990309378135554       0.7500124149660692       10.040464738054585-0.2472027442100666i
-0.44294316553571755      -1.6551155907325297      8.987614990236608+0.40670219264175683i
-0.5130398575996976       -1.4095354215180553      9.923505558069655+0.46703810363209236i
-1.5494744090857253       0.7241011421264525       10.416160794866228-0.1787543163660695i
-1.4095354215180553       0.5130398575996976       10.027637957675296-0.1688960565380739i
-0.7264481595446606       -1.5569964505147067      9.038489484162085+0.3802645348763836i
-0.7500124149660692       -1.2990309378135554      9.929542661450272+0.4299807299999447i
-0.9844603279070855       -1.4024624186467396      9.155839167368386+0.3447230250241761i
-0.9642335055494975       -1.1490229531109146      9.937722081774423+0.3798294365397708i
-1.651792726526354        0.4445641576045677       10.253505654564533-0.10969709214265859i
-1.4772106593504082       0.26047776853607507      10.013992896381357-0.08568619620959061i
-1.2119126523476957       -1.210384975166371       9.28147008735261+0.2978316277061644i
-1.149063052439335        -0.9641857194123948      9.947776271249506+0.3182690692796887i
-1.7060750737095782       0.15021888271383266      10.085850168680524-0.03694712711158447i
-1.5                      0                        9.99993014461992+1.55494627164446E-5i
-1.7083142640548297       -0.14976307212566206     9.913551761834503+0.036757140836866715i
-1.4772109886979958       -0.2604759007468612      9.985867570246084+0.08571613284407632i
-1.403820894202885        -0.9821205575064662      9.423108091927068+0.24154851140528225i
-1.2990322911339665       -0.750010070993209       9.959396367982249+0.24722817462985067i
-1.551690663841669        -0.7237128178695356      9.581196502412396+0.17825502898982912i
-1.409536313227687        -0.5130374076931423      9.972222775842097+0.16892413220947536i
-1.6554509972700804       -0.44422017181652806     9.74343485325339+0.10914843611177623i
0.9847230645340913        0.5050330166939598       10.031401738532576-0.1903237126659616i
1.2008648344332253        0.4979193201932035       10.030928419738956-0.18734778513464337i
1.0807768060422045        0.7224413440004743       10.044942444336268-0.27218016561543373i
0.9192416125180489        0.9192360185584644       10.057257803900207-0.3468385359879322i
0.8313272910502476        0.6678774959315521       10.041579600078377-0.2519854177490743i
0.7153895190447785        0.8566739894903068       10.053384271017585-0.32351780944687986i
0.7224441620852138        1.0807749222983452       10.06739640388615-0.40838898081580705i
1.2748898793617054        0.2542750390838555       10.01574986426451-0.09557605547383462i
1.0224128903168839        0.29599006887008583      10.018371512584089-0.1114988018724926i
1.1000394500664892        0.08964047751280829      10.005516216101082-0.03375582758087021i
1.3                       0                        9.999934944108883-1.4974403519934563E-5i
1.2748902800748012        -0.25427302997131845     9.984120054140766+0.0955459016167532i
1.0610299183128573        -0.12096244923492275     9.992401324348192+0.045533705840474094i
1.0596055206129462        -0.3394856756542466      9.978791341819916+0.1278273060378709i
1.2008674665427264        -0.49791297211385643     9.968941491678029+0.18731759527801753i
0.9467820609760702        -0.5052548130729154      9.968447952086857+0.1904330978940244i
1.080783263646725         -0.7224316832899383      9.954927231565962+0.27215136019741437i
0.4979217638008312        1.2008638212276481       10.074954558148656-0.45432872065480606i
0.506476331786558         0.9410708427980866       10.058689084519749-0.3557514855607311i
0.3316141418675122        1.0762888869531588       10.067165795684984-0.4071850598021555i
0.2542774865505297        1.274889391215389        10.079624075124817-0.48273402935524307i
0.9192399636727167        -0.9192376674108731      9.942610544656343+0.346817558012908i
0.8095056677279252        -0.6838518544522508      9.957288428282466+0.2580307591176496i
0                         1.3                      10.08121384568422-0.4924058555226353i
0.10931980786731789       1.064593217881322        10.06644783545549-0.4028761419415197i
-0.10393032726764048      1.1209472354201107       10.069974711364164-0.424258056612045i
-0.2542726496649377       1.2748903559257052       10.079623152294236-0.48272842096032553i
0.722434315397021         -1.0807815042536755      9.932470958585567+0.40837420541175845i
0.6368844629499694        -0.8395735824827906      9.947539141471227+0.31714662410912137i
-0.49791577134374276      1.2008663059005218       10.074952871632807-0.45431803822761135i
-0.3053391794608046       1.0335196511967168       10.064491138990833-0.39097992471645165i
0.5084580515760682        -0.9864169887835698      9.938343064179275+0.3729152452706077i
0.49791577134374276       -1.2008663059005218      9.924912266147114+0.4543171567646387i
-0.5126260877670702       0.9848384949288346       10.061422739130283-0.37231225629941933i
-0.722434315397021        1.0807815042536755       10.067394149922565-0.4083747336017393i
0.2542726496649377        -1.2748903559257052      9.920241993144156+0.4827271633004933i
0.30441895262960145       -1.0265167154650547      9.935812027853693+0.38832441607972085i
-0.9192399636727167       0.9192376674108731       10.057254521671798-0.34681774028211954i
-0.6753386092608932       0.8357571304674056       10.052081690941593-0.3156490121863344i
0.09303996630995835       -1.109229376845453       9.930623552418767+0.41981327446071665i
0                         -1.3                     9.918651355318216+0.4924043005209298i
-0.8531621289884193       0.7147457534798374       10.044497479952335-0.2696349009181824i
-1.080783263646725        0.7224316832899383       10.044937836680335-0.27215118998283533i
-0.25427302997131845      -1.2748902800748012      9.920241074414893+0.48273265412226135i
-0.10538155234965872      -1.0659210831003534      9.933334112320644+0.40337982594116645i
-0.3309785191594261       -1.0518819784006919      9.934226407327442+0.39792798249158506i
-0.49791297211385643      -1.2008674665427264      9.924910385894464+0.4543286250927507i
-1.2008674665427264       0.49791297211385643      10.030923579000149-0.1873171447879666i
-0.9395818995731745       0.5163281894979804       10.032108480894378-0.19461880702768233i
-0.7224316832899383       -1.080783263646725       9.93246825919222+0.4083909094157316i
-0.510399172809512        -0.9339474656970057      9.941621882960888+0.35304778989834645i
-1.062896677181684        0.3387977857500095       10.021030549296114-0.1275647441992179i
-1.2748902800748012       0.25427302997131845      10.015745016926715-0.09554539494270826i
-0.7189976595822637       -0.8618054782722095      9.946160974514624+0.3254524392608108i
-0.9192376674108731       -0.9192399636727167      9.942607130779704+0.34683904594134i
-1.0807815042536755       -0.722434315397021       9.954923163024466+0.2721768475096054i
-0.8319228040530704       -0.666498582512621       9.95837169620382+0.25146301534966914i
-1.3                      0                        9.999930137685753+1.5356914740506076E-5i
-1.0664996676627645       0.10472812591542703      10.006452580884156-0.03941914293279385i
-1.127842537973944        -0.10191755939636227     9.993585171954658+0.03836986008613351i
-1.2748903559257052       -0.2542726496649377      9.984115389006124+0.09557525447899645i
-1.2008663059005218       -0.49791577134374276     9.96893695322448+0.18734614163042282i
-1.0319755508591002       -0.2986993336941238      9.98132565445787+0.11251153948429042i
-0.9965377364775745       -0.5119901962187896      9.968031395691616+0.1929310998896257i
4.470509997809495         4.730729336298896        19.470598694091-0.0016785963210464035i
4.570576436064643         4.663940347306893        19.283074909843773-0.002314197047016252i
4.59980102087764          4.820318846499434        19.062770117254697-0.002931692834642185i
4.400941308941275         4.85614318498409         19.482020353417738-0.0016246847190748506i
4.507322340672047         5                        19.231979145165568-0.0023911282668232004i
4.7183603442686195        5                        18.71531254967888-0.003937580176427572i
4.455019858931651         4.63033996297325         19.70222761160749-9.573272524861573E-4i
4.326293011359069         4.682839726375187        19.769721546663053-7.281408392518958E-4i
6.3016197756945775        5                        15.666728228201984-0.010074242530590196i
6.062498454368708         5                        15.949858689078964-0.009811524088366622i
6.188469185622886         4.787008842745895        15.774809399860994-0.010012797593169006i
6.442426048273921         4.754167458294307        15.49912423901119-0.010221301975718635i
6.591793948959259         5                        15.386000496406504-0.010258143263898562i
4.823579818931422         4.822480005858524        18.429350399250563-0.004806060923764775i
4.929398347865192         5                        18.148791202616785-0.0055247864649105i
5.14153824367169          5                        17.611280861481976-0.006885098861120918i
5.043842932424522         4.8151625963410645       17.830246714393212-0.00641364397760692i
5.361552230619921         5                        17.11699076653425-0.007978434978272676i
5.2662169534071825        4.805476604636121        17.29597736317234-0.007666735935319466i
5.590913904525575         5                        16.67181816662392-0.008811226552485079i
5.496052586355981         4.806960696508838        16.82353036427688-0.008598548144003253i
5.826632450349006         5                        16.281304114445714-0.009409290707373107i
5.738757144843869         4.784084968324271        16.39341253733035-0.009303652408277569i
5.953589691281373         4.786565775258243        16.073582999616544-0.009713468623376404i
4.7229832074584435        4.651024435281763        18.735583428670527-0.004059425383168078i
4.6166920741597846        4.5765092395936335       19.172339050512146-0.0027698378377594935i
4.688349262175061         4.529166155927989        18.833290801165614-0.003958788762614249i
4.5                       4.55                     20
4.601551465100779         4.488415259451525        19.225853132363074-0.002759137051675536i
4.7035960414646           4.435467110704434        18.65473387047842-0.004775340163438395i
4.614794460417483         4.387132504154806        18.92422498508662-0.004115344448407797i
4.142992566895964         4.822044097505991        19.800684077620698-6.26109393802694E-4i
4.286238201323949         5                        19.610526425133745-0.0012202657121210437i
4.168925928676451         4.640621502864087        19.91364559973052-2.719000227266708E-4i
4.388423544709806         4.55                     20
4.257237873548844         4.55                     20
4.03969813323029          4.667523992509687        19.930968557620925-2.170068935666092E-4i
6.077055216279728         4.615621450014494        15.863538902611333-0.010011356455800135i
6.293625927839017         4.565698372908326        15.59820437265068-0.010232841042179157i
6.963512629991141         5                        15.11501111624212-0.010361688064041107i
6.80054868946915          4.656179278655579        15.18262594746396-0.010372741889245177i
6.5587288932299455        4.480254001363501        15.316489427949532-0.010394132269758743i
7.197586343084033         4.599657646050701        14.9422666095115-0.010405810786474942i
7.4398480973971575        5                        14.896724238893578-0.010391140829716813i
7.6250900135490935        4.6279924179785095       14.808944708901219-0.010392196823498701i
8                         5                        14.808809451086079-0.010389075490574912i
8                         4.411764705882353        14.713161508798516-0.010378233965158622i
4.935929482787084         4.644840152559121        18.05761213690889-0.006010370248631324i
5.1663947478845715        4.618178814992626        17.443616737264716-0.0075459982641052905i
5.387929553970716         4.59255395806421         16.947747920637067-0.008577926754780639i
5.606222554026397         4.627335250288937        16.560330192390264-0.009175514793376468i
5.848262720826229         4.538898285919949        16.13796571024386-0.009807071680206352i
4.701432300311466         4.333682401337794        18.451782317037836-0.00580034567824219i
4.626714308599947         4.302472160176626        18.621420763546357-0.005495521129325234i
4.828051969739491         4.498793541668437        18.282078772976373-0.005685878411507644i
4.787396791043321         4.375612801686055        18.248458900983312-0.006174991689471472i
4.5                       4.45                     20
4.537100001581853         4.3178310941721705       18.969112871823835-0.004376545575402187i
4.684880646648854         4.2325951021446775       18.246632601593745-0.006939337510617633i
4.5900413459023905        4.218539829920662        18.461502847942793-0.006540353621439729i
3.9097762750053304        4.6398409131213345       19.96638774604182-1.0560072267825062E-4i
3.890806012327387         4.789543080278763        19.92462879356057-2.3672302042181627E-4i
3.801665377305482         4.642137492818224        19.976492047212776-7.383980657551217E-5i
4.023255911235964         5                        19.840117999422827-5.019143458306228E-4i
4.117732136407559         4.55                     20
3.978147996190352         4.55                     20
3.8385638559731454        4.55                     20
3.6758567360441496        4.722659728271472        19.972878224013126-8.517822849017172E-5i
3.698979715755938         4.55                     20
6.103800308024421         4.383109371844688        15.727647043726348-0.010297647614417245i
6.34369234712916          4.349391963754359        15.454433198125198-0.010439568354953147i
6.520500406242025         4.203865860319558        15.218222581003522-0.010579024524279588i
6.8822576889323           4.24005520521214         14.980077415783132-0.010506722270618465i
7.4880156272642715        4.128539737959489        14.66730762255507-0.01039963979299891i
8                         3.823529411764707        14.434593593373561-0.010291570686289567i
5.039905134548794         4.458490415406646        17.62924511317554-0.007451928657219663i
5.278535781292526         4.391237457227559        17.020044702308663-0.008833094707769744i
5.574474248232817         4.3685524133016935       16.456826927449807-0.009690504136481917i
5.883939883094996         4.207018772407315        15.882380861385284-0.010467569294507874i
4.792109143633454         4.268422802611072        18.028946652616764-0.007235253409856279i
4.921690837683132         4.338858539861298        17.793965095312117-0.0074582348475403125i
4.746063951998926         4.155128802000056        17.895289713879855-0.008249266980977691i
4.387412538980868         4.45                     20
4.430895700173954         4.330921485753628        19.301570422567362-0.003284189267397371i
4.490863148039946         4.212986499976745        18.677103789974126-0.006108222247874411i
4.6583032441830685        4.115235300389873        17.995938274995122-0.008413072228336635i
4.561108959660585         4.1105927250312515       18.188009255724122-0.008163965687121924i
3.516298584217904         4.8182617980445235       19.97790558537388-6.938604828832916E-5i
3.4976383697612965        4.666137878390051        19.98986986662315-3.1813529507760116E-5i
3.7064889100298406        5                        19.946915731956377-1.6670117454348917E-4i
7.5203266349500115        3.5068076050687838       14.264598488593725-0.010269176956329297i
8                         3.2352941176470598       13.994930815653126-0.009992798670218697i
7.520403368716676         2.922794695279361        13.74393150251442-0.009845491900886932i
8                         2.647058823529412        13.424212256708058-0.009312305615994864i
3.387633216190236         4.701603897063978        19.99115811191642-2.7767493382371806E-5i
4.254962524005343         4.45                     20
4.312305880108264         4.328992991030862        19.439929910362874-0.002984663057687444i
4.115502084124465         4.45                     20
4.1795168517539905        4.321732073393307        19.49006670146292-0.0030872331690446207i
3.5593955755387303        4.55                     20
3.419811435321524         4.55                     20
6.226112308681223         4.085965783541582        15.407940470181902-0.010741210864556358i
6.598957604388417         3.8879891268756657       14.95235031003955-0.010794416309914607i
7.016993522516366         3.727867382750114        14.594789772584578-0.01058678160037582i
5.109154306316322         4.255166113180823        17.22629994998611-0.008912813233105213i
5.362026521715413         4.161692991310424        16.622297977006625-0.010060948101610128i
5.6545436110744784        4.060722745890473        16.06000857703424-0.010749566924897673i
5.91137096356772          3.9120570153943928       15.593238131774482-0.011157884165721152i
4.923430497403378         4.137625363039235        17.450101189330113-0.009127065985182965i
4.767827052217059         4.021266307266436        17.53438571165485-0.0099072389092979i
4.376280620917171         4.203585220097828        18.84326394317928-0.005929818918432263i
4.450607106723316         4.096700082189579        18.34544785018106-0.008157199381270479i
4.62569350599251          4.003383011770904        17.759571868722976-0.009913157951391251i
4.521139419993688         4.020571739767261        17.990596761307025-0.009544827565054035i
3.3126513203767196        5                        19.986483047259902-4.244879018426225E-5i
3.2113659945483706        4.695328187732062        19.995408247119528-1.4420073909899753E-5i
3.0706664791820226        4.7974913715328285       19.995596633060664-1.3828436270954096E-5i
3.0707925203973767        4.658804165279605        19.99785384759727-6.739830681964752E-6i
2.9302279586994806        4.701201267133138        19.998220631760464-5.587968961024314E-6i
7.042661495077465         3.1800554964415078       14.116270217131222-0.010489488271013534i
7.517733058399758         2.346098713459754        13.119965370753507-0.008962140871519803i
8                         2.0588235294117663       12.753879195657435-0.008113172824840885i
7.041699023872819         2.621453415529646        13.525927308518243-0.010002150323626351i
3.280227295104316         4.55                     20
3.140643154887109         4.55                     20
3.0010590146699014        4.55                     20
2.8614748744526946        4.55                     20
2.758283305033959         4.698431150653177        19.999030342128574-3.0451349055859335E-6i
3.975993538899905         4.45                     20
4.039266726562798         4.32119253720734         19.536789231130708-0.0031718300896587752i
4.2503251201082595        4.189878687158406        18.937322582840064-0.0061126828441848855i
4.104737132087176         4.190323667497516        19.0459963666529-0.006221422762979953i
3.836484993675345         4.449999999999999        20
3.9008364371735484        4.320995435231449        19.566570265758802-0.0033240671572328157i
3.696976448450785         4.45                     20
3.7652532436441324        4.32185394340554         19.58982226081613-0.003493073153340602i
3.557467903226226         4.449999999999999        20
3.6265740945601075        4.324394350379354        19.61261867405121-0.0036521556608722105i
6.230595713967705         3.6710438623285784       15.052047112203867-0.01134054481751841i
6.585290506046706         3.4104758555083983       14.55132501394368-0.011100509089932742i
5.677449296714592         3.8246306854643723       15.77377010296524-0.011549695054217659i
5.163842222770168         3.998237946355047        16.749570552847278-0.01070628208204507i
5.426234415150392         3.8978704884549664       16.195026996613745-0.011371570681271525i
5.8539118182502605        3.597565529378082        15.31620142319828-0.01201698009651738i
4.949620758481706         3.8647474316715376       16.88103581319285-0.011659976909593573i
4.7063685833237034        3.848369572502839        17.236805750251474-0.011959932744527823i
4.327815850666891         4.063540198305643        18.408591603511976-0.008729975486067625i
4.427809726966615         3.968388951929443        17.976792474874568-0.010419597792239442i
4.546870961599838         3.8942224967961367       17.595178862656294-0.011496250048582976i
2.7218907342354877        4.55                     20
2.6294573509927717        4.630394675421529        19.999655865360026-1.0807279038866423E-6i
2.58230659401828          4.55                     20
2.5269698315352835        4.624254688131006        19.999776833556375-7.008367273140915E-7i
2.5747324431476146        4.759183840734792        19.999312981857134-2.157526635219906E-6i
2.832025476114458         5                        19.997449329884113-8.010176745049734E-6i
7.612991067149926         -4.617603815742373       5.191620355851662+0.0103914413881279i
7.412072949980371         -5                       5.09514958342925+0.010389671377661846i
8                         -5                       5.192067077035623+0.010387814846166687i
8                         -4.411764705882343       5.287694313085388+0.01037680723208287i
7.144464703743313         -4.596636501408036       5.034633341439435+0.01040535198926869i
6.566418579886533         2.8930846738415297       14.007371351344458-0.011169470601712759i
7.519888186320846         1.7614724266158817       12.405522286142785-0.007480039521156623i
8                         1.4705882352941193       12.012680504069516-0.006340829633861248i
7.039974979748431         2.0481307230773433       12.832758146850068-0.008896093735598356i
6.564030656888684         2.330415859569207        13.314962105008151-0.010596862484653928i
7.521008859770601         1.1746970164917672       11.632621589867753-0.005399484269631861i
8                         0.8823529411764723       11.225039633591846-0.004048601403130252i
3.9590131295082966        4.194100786586108        19.12732644178305-0.006410682134207444i
4.0271804810594904        4.084499152316603        18.734553483091545-0.008848808395704294i
4.167462003118329         4.023888715404008        18.440042288024387-0.009795384306682116i
3.829006192173408         4.18882313783669         19.152649451849197-0.00688851302502376i
3.7016410123449104        4.196909956001649        19.208508238368953-0.007073390151470024i
3.4179593580016676        4.45                     20
3.487262221090444         4.323365335332292        19.62037158361329-0.003945031003380853i
3.2784508127771077        4.45                     20
3.349310619024401         4.320870217266199        19.621111864756173-0.004317054779810321i
3.552739368224219         4.2053863167637004       19.259889082060884-0.007352738362872049i
6.081682072704875         3.201007319250936        14.650707353930427-0.012271516091095879i
5.497123665152909         3.597537295716735        15.695604102772764-0.012673490414399536i
5.212586837553796         3.6723252904732955       16.156995267446934-0.012835286907878206i
5.640977288774908         3.318105891100278        15.157506578198237-0.013325214635508939i
4.995431968043851         3.577833356841067        16.26863753706232-0.01404871262101883i
4.781723862401614         3.6452094517231313       16.674576618809947-0.014104887341123975i
4.579617608140941         3.7009277326772554       17.058116458937622-0.01412651126936254i
4.2981087795703665        3.8941535054496548       17.91195402469837-0.011997742915526006i
4.421866189060781         3.792392103130273        17.484151013554694-0.01334419644083473i
2.3706654938163747        4.687131323650975        19.999770661036703-7.2022101413288E-7i
2.442722453801073         4.55                     20
2.27983297296597          5                        19.99962211150429-1.1867290935527254E-6i
6.851490434470424         -5                       4.814031128288095+0.010340461975998055i
6.628176577206993         -4.640965075687651       4.69159102364675+0.01033834060146875i
7.521636328736939         0.587378489093052        10.824633271634939-0.002835441552935639i
8                         0.29411764705882604      10.411345519100268-0.0013941274833074587i
7.50256497128716          -4.120837685429832       5.341024492271508+0.010395270123242548i
8                         -3.8235294117646963      5.566245219903561+0.010289939934133968i
6.863440447064639         -4.197414721950226       5.0305179668202795+0.010524822678910792i
6.359386557518675         -4.333506637167718       4.569747974146318+0.01045772166422451i