% Model:              VLR_3_01V03.mph
% Version:            COMSOL 5.5.0.292
% Date:               Jun 21 2020, 14:22
% Dimension:          2
% Nodes:              2300
% Expressions:        1
% Description:        Electric potential
% Length unit:        cm
% x                       y                        V2 (V)
1.3988104812976685        0.9792290967716513       10.57311427563498-0.24512169794649954i
1.149066861522912         0.964181179939686        10.052727601443411-0.3215343899295418i
1.2990382497578632        0.7499997504439765       10.040995340316753-0.24984696641380874i
1.5479090907878503        0.7230478298857097       10.421197051735987-0.180804959103397i
1.409539002854417         0.5130300180614935       10.028041337277454-0.17075846025565258i
1.6518380435400188        0.4443018988468091       10.259146234543584-0.11080976796463182i
1.4772116647960043        0.2604720664305813       10.014257376093358-0.08665616886652876i
1.7051811034478406        0.1499507209029401       10.08760055522316-0.037333897207965955i
1.5                       0                        10.000049517040743-9.922989958436212E-7i
1.7040940650124075        -0.14929431697106021     9.913244355341186+0.03722466565270859i
1.4772106593504082        -0.26047776853607507     9.985841344121509+0.08665613419308398i
1.2072647638130263        1.2066747042986596       10.711047118237998-0.3021972190184756i
0.9641816539097096        1.149066463814838        10.062877490898837-0.3836053882427995i
0.9800893376464632        1.3982853203885315       10.832974774977783-0.3497443250403789i
0.7500003944253057        1.2990378779550218       10.071127694782753-0.4340976845441356i
1.6526079141032206        -0.4436375165341632      9.740834236285847+0.110560604626196i
1.4095354215180553        -0.5130398575996976      9.97205713571532+0.1707600426996568i
0.7260924153980141        1.5489145899990708       10.939669634907629-0.3856630357221784i
0.5130308300018143        1.4095387073321717       10.077216616946714-0.4713851915379999i
0.4464108040848996        1.6543243786631485       11.019021279289776-0.4101899496822088i
0.2604733176110247        1.4772114441787627       10.080948397344782-0.4942483784248834i
1.5505884924022975        -0.7253425781689191      9.572465499879423+0.18057498071769276i
1.2990309378135554        -0.7500124149660692      9.959102956669739+0.24984980539009152i
0.14966470367121068       1.7091608549569464       11.063798625726605-0.42244560622073296i
0                         1.5                      10.082212687882157-0.5019905578768015i
1.4008823986091536        -0.9840007208900838      9.41502787584148+0.2448857000699692i
1.1490229531109146        -0.9642335055494975      9.947368499057303+0.3215508414935439i
-0.1497788420899358       1.7073038489016483       11.055889479056148-0.42302721153201545i
-0.2604759007468612       1.4772109886979958       10.080948277730522-0.4942477410803557i
1.2082803354860845        -1.2120687973901434      9.274182646943729+0.3017347271809889i
0.9641857194123948        -1.149063052439335       9.937221640230058+0.3836036193278071i
-0.444167642208028        1.656125427865264        11.02426836102925-0.41000271606152877i
-0.5130374076931423       1.409536313227687        10.077216367634145-0.471384089150688i
0.9795047766124927        -1.4021977620183315      9.1561208410046+0.3493856409155889i
0.750010070993209         -1.2990322911339665      9.928971444702627+0.43409582720304263i
-0.7240419539375974       1.5506065166734169       10.942963971187199-0.3857404722429447i
-0.750010070993209        1.2990322911339665       10.071127325935628-0.4340957183366581i
0.7213925838289377        -1.5534085622822413      9.050633357699553+0.385705234345711i
0.5130374076931423        -1.409536313227687       9.922882384198521+0.4713845380753689i
-0.9809999849136383       1.4013142116255781       10.843802656441069-0.34910545618499594i
-0.9641857194123948       1.149063052439335        10.062877182029117-0.383604006821798i
0.44163784292663555       -1.6534761115295737      8.988858318504404+0.4111079232172062i
0.2604759007468612        -1.4772109886979958      9.919150429192714+0.49424866229547754i
-1.2092375610339465       1.2112625713275373       10.725676490421565-0.30149366439544845i
-1.1490229531109146       0.9642335055494975       10.052730342077727-0.3215515135820185i
0.14909774462358297       -1.7061831631135722      8.949229184252587+0.4234184600092686i
0                         -1.5                     9.917885995053615+0.5019918047985715i
-1.3997599373265963       0.9817500926290751       10.579195735713538-0.2450351511347293i
-1.2990309378135554       0.7500124149660692       10.040995873975767-0.24985061754601612i
-0.15058690198504246      -1.7085314509470353      8.938704625167562+0.42260187594742554i
-0.26047776853607507      -1.4772106593504082      9.919150352104253+0.4942493072441228i
-1.5494107398596737       0.723740120572657        10.424083339737178-0.1805868110692506i
-1.4095354215180553       0.5130398575996976       10.028041674606689-0.1707607944246142i
-0.44490178700206495      -1.65286454118971        8.988356813897168+0.4108165979987839i
-0.5130398575996976       -1.4095354215180553      9.922882235873253+0.4713855594991084i
-1.6538647255138552       0.4449010172151922       10.261417111820528-0.11065447458336963i
-1.4772106593504082       0.26047776853607507      10.01425744260522-0.08665670533921466i
-0.7253352357714702       -1.5519348231233276      9.050510580469508+0.3851725326500699i
-0.7500124149660692       -1.2990309378135554      9.928971292536948+0.4340971554335307i
-0.9858784565282518       -1.403743674517416       9.140629134124474+0.3475015163335229i
-0.9642335055494975       -1.1490229531109146      9.937223521418263+0.3835923472279596i
-1.2139648789549706       -1.2097342946630891      9.269678800553606+0.30022003998921204i
-1.149063052439335        -0.9641857194123948      9.94737079196923+0.3215372142664593i
-1.7060922302410908       0.14988177667752123      10.087831198171793-0.03727207730144655i
-1.5                      0                        10.00004923098861+7.779244420465036E-7i
-1.7057117317758668       -0.14954050789826293     9.91259432695921+0.03720822683318839i
-1.4772109886979958       -0.2604759007468612      9.985841130334483+0.08665761746895341i
-1.404146234711213        -0.9797563173564157      9.417144912901604+0.24375602648669606i
-1.2990322911339665       -0.750010070993209       9.959102750990741+0.24985140961197785i
-1.5518934570983185       -0.7221972743916493      9.574565295761362+0.17982867007153744i
-1.409536313227687        -0.5130374076931423      9.972056936583455+0.170761550349512i
-1.6546843606778796       -0.4430575949250988      9.739491601736288+0.11015255640078032i
0.9847230645340913        0.5050330166939598       10.031834062455221-0.19228484700421045i
1.2008648344332253        0.4979193201932035       10.031360541370056-0.18935532119087048i
1.0807768060422045        0.7224413440004743       10.045512690641145-0.2750135574781476i
0.9192416125180489        0.9192360185584644       10.057944660813005-0.3503213047203971i
0.8313272910502476        0.6678774959315521       10.04211004620859-0.2545108049370712i
0.7153895190447785        0.8566739894903068       10.054027711466214-0.32668597868173416i
0.7224441620852138        1.0807749222983452       10.068175179778336-0.412341388316779i
1.2748898793617054        0.2542750390838555       10.016027764972641-0.09661460254458204i
1.0224128903168839        0.29599006887008583      10.018673240761645-0.11265609288241753i
1.1000394500664892        0.08964047751280829      10.005688008409832-0.03410330136002366i
1.3                       0                        10.000049526450535-9.801431132474852E-7i
1.2748902800748012        -0.25427302997131845     9.984071400151807+0.09661197121662281i
1.0610299183128573        -0.12096244923492275     9.992439762878831+0.04602701332537263i
1.0596055206129462        -0.3394856756542466      9.97869176006265+0.1291865802525324i
1.2008674665427264        -0.49791297211385643     9.968738847902037+0.18935134977927423i
0.4979217638008312        1.2008638212276481       10.07579920216897-0.4585889853923184i
0.506476331786558         0.9410708427980866       10.059379452458815-0.3591455305845938i
0.3316141418675122        1.0762888869531588       10.067934211676677-0.4109909982621409i
0.2542774865505297        1.274889391215389        10.080508339524748-0.4871662719034118i
0.9467820609760702        -0.5052548130729154      9.968246471055643+0.19240481479468777i
1.080783263646725         -0.7224316832899383      9.954586852365328+0.27500877259986933i
0                         1.3                      10.082111659182711-0.49689503682753844i
0.10931980786731789       1.064593217881322        10.067207792695777-0.40661444040605493i
-0.10393032726764048      1.1209472354201107       10.070768214171066-0.4281822816529656i
-0.2542726496649377       1.2748903559257052       10.080508306137077-0.48716641260187526i
0.9192399636727167        -0.9192376674108731      9.942154084858403+0.35032133439513546i
0.8095056677279252        -0.6838518544522508      9.956979372277473+0.26062615440182796i
-0.49791577134374276      1.2008663059005218       10.075799297379108-0.4585897754941633i
-0.3053391794608046       1.0335196511967168       10.065235037398773-0.3946461454885815i
0.722434315397021         -1.0807815042536755      9.931923247898215+0.4123437988650323i
0.6368844629499694        -0.8395735824827906      9.947138996624908+0.320242341546278i
-0.5126260877670702       0.9848384949288346       10.062141229263935-0.37586930276112857i
-0.722434315397021        1.0807815042536755       10.068175520006303-0.41234385897087517i
0.5084580515760682        -0.9864169887835698      9.93785733417277+0.376477278011302i
0.49791577134374276       -1.2008663059005218      9.924299443545914+0.45859019270889084i
-0.9192399636727167       0.9192376674108731       10.057944684848538-0.35032180763616044i
-0.6753386092608932       0.8357571304674056       10.052714036979056-0.3187443155415586i
0.2542726496649377        -1.2748903559257052      9.9195903930603+0.4871671822968456i
0.30441895262960145       -1.0265167154650547      9.935305872126044+0.3919686331338767i
-0.8531621289884193       0.7147457534798374       10.045060255495908-0.272360656256014i
-1.080783263646725        0.7224316832899383       10.045511942097615-0.27500943710882103i
0.09303996630995835       -1.109229376845453       9.930070535240311+0.4237006750215901i
0                         -1.3                     9.917987034768275+0.49689615749754124i
-1.2008674665427264       0.49791297211385643      10.031359964022686-0.18935204943255368i
-0.9395818995731745       0.5163281894979804       10.03255040254932-0.1966309044403336i
-0.25427302997131845      -1.2748902800748012      9.9195902652239+0.48716792258493347i
-0.10538155234965872      -1.0659210831003534      9.932806883347103+0.4071245777838987i
-0.3309785191594261       -1.0518819784006919      9.93370591488874+0.40165560666791605i
-0.49791297211385643      -1.2008674665427264      9.92429916747107+0.4585920222905899i
-0.7224316832899383       -1.080783263646725       9.931922869721372+0.41234642648283254i
-0.510399172809512        -0.9339474656970057      9.941169181325774+0.3564209700057604i
-1.062896677181684        0.3387977857500095       10.021363441188186-0.12892267065145285i
-1.2748902800748012       0.25427302997131845      10.016027392186047-0.09661253226329991i
-0.7189976595822637       -0.8618054782722095      9.945747791472256+0.328642538255396i
-0.9192376674108731       -0.9192399636727167      9.942153685403216+0.35032441838629785i
-1.0807815042536755       -0.722434315397021       9.954586393060849+0.27501202486581905i
-0.8319228040530704       -0.666498582512621       9.95807557335896+0.2539853302397664i
-1.3                      0                        10.000049223773958+7.640806511632795E-7i
-1.0664996676627645       0.10472812591542703      10.006637562188585-0.03984855165604145i
-1.127842537973944        -0.10191755939636227     9.993639137878397+0.038768341447006374i
-1.2748903559257052       -0.2542726496649377      9.984071094583024+0.09661390058148771i
-1.2008663059005218       -0.49791577134374276     9.968738363761961+0.18935464951421976i
-1.0319755508591002       -0.2986993336941238      9.98125569436809+0.11368194349935312i
-0.9965377364775745       -0.5119901962187896      9.967828037272328+0.1949239556208954i
5.091825537078924         4.828642498019624        19.13896326743188-0.002153939669324667i
5.208106355993822         5                        18.824997948499682-0.002890434342816233i
4.997236055295913         5                        19.301465399762744-0.001741740096031514i
5.097379062696393         4.563177083881621        19.31827706078321-0.0018272607337990806i
5.161568296381946         4.598933863519633        19.032873073623257-0.0025371651661490044i
5.0704818972180785        4.657330051440652        19.336034770626885-0.0017123277908180187i
5.1698006690628           4.519258589428173        18.973103572372967-0.002788591063357069i
4.909591813604027         4.841021500340498        19.510292378477903-0.0012293310705661416i
4.771458077388619         5                        19.652578895991226-8.710492149022561E-4i
4.975403805373081         4.730235686068971        19.494348564011677-0.0012812349207299732i
4.773923569550702         4.785112285155188        19.729172468181652-6.812492153281803E-4i
4.634564353169443         4.828762659900402        19.816020029803386-4.6217183654509165E-4i
4.9565078364878055        4.635291704241199        19.704561318975422-7.575820903221708E-4i
5                         4.55                     20
5.08504445081914          4.490362915019645        19.367288482875804-0.001787387049797388i
5.155352538741596         4.446907315799619        18.946558161486973-0.0029898381933819457i
5.100353240633812         4.401196780269604        19.084910838289257-0.002747821197178408i
5.2116320509939245        4.6902717115378785       18.850356807312256-0.00291909364382692i
5.301956615071337         4.836087793807485        18.590149041068994-0.003463565818801382i
5.418556377713649         5                        18.299919807695677-0.004086739529971978i
5.256697203577215         4.564691558305624        18.673369992313837-0.0034715464625415353i
5.232708607135593         4.452532744410946        18.65011766536251-0.0037159692620837986i
5.186125492668285         4.371364688685313        18.672717952939635-0.0038690403724065616i
5.125655859550363         4.322658582683292        18.756438357587417-0.003843017475809435i
4.521963891712025         5                        19.851002123790643-3.7412003596052343E-4i
4.498170847685495         4.781695249276195        19.899828917610805-2.5166625356375755E-4i
4.361278924543235         4.835281273538954        19.92823363534517-1.8025909648492776E-4i
4.848611942476568         4.6888926763028795       19.75438405871675-6.211356431296843E-4i
4.698886459475132         4.680621669611503        19.872356803425152-3.214330016871096E-4i
4.565507698480734         4.684014352729091        19.920094489906845-2.0089820317474016E-4i
4.421567405403682         4.681173506338054        19.953094162513946-1.1785763173457845E-4i
4.217697346437051         4.777906567187996        19.962942347606884-9.30815875392785E-5i
4.291205307528257         4.686050162484091        19.969324183307474-7.705974079107878E-5i
4.888041601602849         4.55                     20
5                         4.45                     20
5.037238859369791         4.327475369315524        19.05947983905244-0.0030973111763809217i
5.513203831949492         4.818445633864478        18.05120037980909-0.004658942538268019i
5.629006399433477         5                        17.80495389050203-0.005120996628297i
5.391635961815306         4.645508520970672        18.304009982221178-0.004235204739275655i
5.346800497614624         4.463554030231511        18.2927316585431-0.0045165897470323185i
5.097904956208703         4.238564930341172        18.580706431997076-0.00463569726297819i
5.274485236887387         4.3486882726248          18.341608106871828-0.0046878016874425206i
5.195031745990894         4.274028634542219        18.41494506628912-0.004799220033179011i
5.728158357896092         4.806449587671411        17.564909642032486-0.0056245728482168765i
5.843961831460014         5                        17.35901931647855-0.005954961311630043i
5.946890941840184         4.802250979753403        17.142158835232213-0.006358520962418491i
6.067998465830922         5                        16.960916391578763-0.006607364692656372i
4.234861842787156         5                        19.945068073459854-1.379666429000365E-4i
4.063055239748159         4.811913901216528        19.976103612922994-6.002107884825695E-5i
4.141078895191022         4.665804617055489        19.98439352763256-3.9201080754026804E-5i
4.022112820843905         4.6453666016534125       19.991447059918173-2.14830305404543E-5i
3.9241059957937288        4.701974040197757        19.990600046934656-2.361017221306232E-5i
4.756310846315618         4.55                     20
4.6164599140965805        4.55                     20
4.476567189426982         4.55                     20
4.336674464757383         4.55                     20
4.196781740087786         4.55                     20
4.887808936663978         4.45                     20
4.934644310266761         4.335678049128921        19.350217861646325-0.0023565208029712463i
4.9919453007881796        4.228600684846197        18.793682513335984-0.004292536663526883i
5.612897201692609         4.623134664747891        17.737416652237474-0.005429499031855175i
5.508998316355745         4.466341272995664        17.861125193560287-0.005401721536399955i
5.3942635003347394        4.314614405773698        17.957179193160474-0.005561167784628947i
5.063528639452537         4.129808355313784        18.32635543822065-0.00580249875101134i
5.174029332100448         4.1488179553460185       18.149286911635695-0.005924292417409187i
5.2919657856656865        4.216040023383861        18.032190713669078-0.005773174802431106i
6.304525257618053         5                        16.60788902086492-0.007104497374556133i
6.189920836544797         4.772097904232644        16.740775654746702-0.006963872692095481i
5.827968980513138         4.5972287023224405       17.27594722533884-0.006270793941524158i
6.037957580859711         4.6059854799384095       16.912771244915156-0.006812640140652753i
6.444517997064196         4.729773210133166        16.39138311156731-0.007405603924424861i
6.594623575212973         5                        16.25744524340864-0.007515597962080529i
7.625144409765326         4.628511730808293        15.550497660149045-0.008076897630649598i
8                         5                        15.550344762048804-0.008073521823085773i
7.441339237686694         5                        15.656889393653465-0.008013894524902478i
8                         4.411764705882353        15.434173085914665-0.00812895896768206i
6.7740685676401           4.6708837687754245       16.034252251604276-0.00776433099011023i
6.965906997927629         5                        15.923275424159014-0.007826003335611627i
7.202891645079418         4.599893960542163        15.709492094286242-0.007999774305495833i
3.8697088800715935        5                        19.98460730892557-3.8661723008684425E-5i
3.7684079343477688        4.720146157310853        19.993957406812154-1.517725119279657E-5i
3.633910388385135         4.79875674635651         19.994844172708973-1.2949922149453915E-5i
4.056889015418188         4.55                     20
3.9169962907485902        4.55                     20
3.7771035660789924        4.55                     20
3.637210841409394         4.55                     20
3.50463927266492          4.719313825088017        19.997612824761955-5.995882180761137E-6i
4.755792612389559         4.45                     20
4.814292464563157         4.334924208563962        19.487975712330336-0.0020992410372074155i
4.877813988882177         4.216261050469096        18.939848228557924-0.004177481831922888i
4.946488205053551         4.110101871395784        18.469024552803003-0.005827014702332698i
5.022179034023275         4.028293214648231        18.102166080838906-0.006942407773970212i
5.707625112159145         4.407587986474482        17.367818731429665-0.0063654108997254965i
5.5644081517160835        4.238413247768582        17.46232276150778-0.006598757155459775i
5.414521368086479         4.169484570332187        17.66632174558059-0.006541202973150717i
5.131794084213279         4.016785316727023        17.889397820182023-0.0071789783621185104i
5.299463530594175         4.040606301684243        17.64230508215992-0.007211743222104446i
6.243209543926621         4.4969451050873905       16.552152149960737-0.007343835728979858i
5.98179760147381          4.361404708296167        16.841768088181-0.00715761826606739i
6.5395080753095876        4.372841240318787        16.131550713573116-0.007812098416422444i
7.481491166060524         4.130899987616946        15.38076608357763-0.008185435686395027i
8                         3.823529411764707        15.098168046030276-0.008227378102692993i
6.9388301266052705        4.245222868683789        15.716769346307117-0.00809636633877085i
3.4125107178274003        5                        19.99685358481999-7.9028614021082E-6i
3.3474926538386387        4.698312955540649        19.998767889620684-3.0946976277588053E-6i
3.1716489712169373        4.770348672499539        19.999059641325957-2.361902989654518E-6i
3.2511662859160397        4.632927159822811        19.999493123613785-1.2731237758195502E-6i
3.4973181167397964        4.55                     20
3.3574253920701977        4.55                     20
4.615951899130211         4.45                     20
4.68221543146964          4.3282457770200935       19.53417586398511-0.0021618905767687535i
4.476074568853544         4.45                     20
4.546126087067965         4.32669651027116         19.571813675475486-0.0022367007602555884i
4.3361972385768786        4.45                     20
4.40573304989598          4.32866015622252         19.606424805411134-0.0023064331389169926i
4.196319908300211         4.45                     20
4.266466233197295         4.3252569122648525       19.61473337706788-0.0025168977492037773i
4.056442578023544         4.45                     20
4.130263313793142         4.3226694216397235       19.62059414506584-0.002744383407236859i
4.751080045370834         4.20388595291124         19.03098792905961-0.004276106365258627i
4.828433707275628         4.084374953630403        18.542268573238903-0.006125589515916221i
4.921547218702496         3.9777578446006054       18.09891967903624-0.007553231887902614i
5.045208131177306         3.905738933841673        17.733541024444378-0.008336916040511379i
5.74968042120349          4.159005322716151        17.01549148537653-0.007366192584807058i
5.527168856469244         4.020488407799542        17.19420980314109-0.007698320839116176i
5.189340704205334         3.848190924281648        17.388091300266723-0.008824028532134551i
5.367753511352488         3.8647466533513684       17.161662595410533-0.008626994785322098i
6.266053800256908         4.1367826313786065       16.26115118608078-0.00798130775183807i
5.975533739637011         4.080562361982969        16.577096526524784-0.007916843580780689i
7.523703438019693         3.5322658115176218       14.914821275743757-0.008318244532972916i
8                         3.2352941176470598       14.574059944194742-0.008199576198158415i
6.590921492331081         3.946320943322261        15.7659794478653-0.00836444074481517i
7.044099813210913         3.750497311527156        15.287261058346262-0.008425410527071157i
7.524458656036556         2.946296779993728        14.301232271979467-0.008218061293137381i
8                         2.647058823529412        13.903351751152632-0.007837442939818933i
2.8710458156581584        5                        19.999516287906918-1.214941638727192E-6i
3.141722588758003         4.634611278656445        19.999645489903017-8.904245815300313E-7i
2.9906250765254363        4.669780560959878        19.999712826216566-7.212956253717854E-7i
2.7976108832789897        4.674973252393094        19.999843424276833-3.932719030140295E-7i
2.545825684134168         4.737782257300359        19.999907614811075-2.3204426540795824E-7i
3.217532667400601         4.55                     20
3.9165652477468775        4.45                     20
3.9856069107877152        4.327266394401694        19.644678554609218-0.0028519477787166043i
3.7766879174702117        4.45                     20
3.8451443109466603        4.323914471773127        19.642707244124747-0.003160839966431583i
3.6368105871935446        4.449999999999999        20
3.706903023931755         4.32114432230358         19.640699805659064-0.003486475582665079i
3.4969332569168787        4.45                     20
3.566070227618276         4.323445530330605        19.651463413846027-0.00370422444610467i
4.614855009131454         4.197322868019186        19.10138886117203-0.004455934630356769i
4.481926598324869         4.205950092741652        19.189625853338196-0.0044792023948809i
4.06452414142303          4.200739372062105        19.27006184368197-0.005536653019060274i
4.332357914839884         4.20735653553012         19.23922420725143-0.0047299124749581095i
4.197951490863334         4.192819387388773        19.224660550159538-0.005336078241623626i
4.688869705300851         4.062186692141202        18.60483097692722-0.0065780248794788596i
4.782447858790661         3.931490995733026        18.11929578411718-0.008344780968940103i
4.904526375894556         3.80654709835452         17.642914791849503-0.009680172041182883i
5.070458137347533         3.7121936707197283       17.218958188969495-0.010290595486060055i
5.772398569246678         3.8802294116687586       16.600083815605796-0.00855286959535738i
5.531300547981292         3.778146662651305        16.763847377974454-0.009132297555062268i
5.309724492750345         3.6188009784129025       16.733811498642492-0.010507017956567147i
6.141122031986612         3.7433564183511345       15.977688487143151-0.008896794008665882i
7.053114264871377         3.2082095502657113       14.732545124871907-0.00865536462189091i
6.593107992097994         3.4554940595697214       15.255696874744077-0.009003439877557145i
7.522014085453627         2.3516467120932116       13.552899338851276-0.007661104968658328i
8                         2.0588235294117663       13.12648509893985-0.006973442310958341i
7.042808097523377         2.638568332560877        14.029631438945676-0.008537036022641943i
2.2880173318534425        5                        19.999935563669453-1.618450000296789E-7i
2.2857299237649333        4.765193094324324        19.999957534942794-1.0665966178205504E-7i
2.033464448453001         4.794392152268836        19.999980289890576-4.950596497577624E-8i
2.4035289170022747        4.634759126317592        19.99997324381743-6.72036157921121E-8i
2.287263439277354         4.630005213779038        19.999982876969273-4.3007988134439726E-8i
2.147014938309709         4.663166622567544        19.999985216195714-3.713254347480517E-8i
1.9389573536057358        4.689409275033068        19.99999132686958-2.1784338748571363E-8i
1.8231278179676167        4.762791302923087        19.99999176370507-2.0687137574588968E-8i
1.803271427427081         4.694564653464718        19.99999445141942-1.3936394098126606E-8i
3.077639942731002         4.55                     20
2.9377472180614035        4.55                     20
2.7978544933918057        4.55                     20
2.657961768722208         4.55                     20
2.51806904405261          4.55                     20
3.3570559266402116        4.449999999999999        20
3.4253431973139894        4.32409837760554         19.656405639103937-0.003986819081751972i
3.2171785963635458        4.45                     20
3.2876949269464433        4.324595219834801        19.659901987993592-0.004287392892274001i
3.9098802624491427        4.205702119511484        19.30292185868335-0.005894739680047795i
3.775222852445207         4.189368584889388        19.26933204933205-0.006768680105908065i
3.641482299674523         4.190135388697372        19.281049219525205-0.007271451771843432i
3.488730507087761         4.204101945781702        19.327176324038415-0.007498518084086797i
4.538912187254563         4.056972183029769        18.689853238472868-0.006961520477101969i
4.404737237113291         4.107757615685631        18.909685859535568-0.0064216852228950825i
3.986254089278865         4.098020034046644        18.987303090797482-0.008113228061129301i
4.122545810573243         4.045911227701208        18.811608692227594-0.00864005654991534i
4.264543131051339         4.059619122974533        18.813146126882256-0.007778539344398813i
4.613059781903468         3.90611837949089         18.18677855586016-0.00916730938032796i
4.727742929710963         3.72901141686866         17.60145061685211-0.011236927983222329i
1.6923650543738296        4.768423860620013        19.99999453343162-1.3730403842348255E-8i
4.879976086355297         3.5815808190048948       17.09289853524082-0.012308273865355863i
5.09445811944272          3.512212216761047        16.731583356677906-0.01203854211574613i
5.684220674136354         3.507306909310564        16.112916331797162-0.010309216211866116i