% Model:              VLR_3_01V03.mph
% Version:            COMSOL 5.5.0.292
% Date:               Jun 21 2020, 14:27
% Dimension:          2
% Nodes:              1156
% Expressions:        1
% Description:        Electric potential
% Length unit:        cm
% x                       y                        V2 (V)
-1.4059463872219098       -0.9813797318893042      9.624864116115758+0.22110970902019259i
-1.149063052439335        -0.9641857194123948      9.948606129208711+0.29107543274138126i
-1.2990322911339665       -0.750010070993209       9.960180965820385+0.2231104290922128i
-1.5540042043557092       -0.722034845019996       9.74899646645578+0.16172905653363087i
-1.409536313227687        -0.5130374076931423      9.9727320922067+0.15092118073801508i
-1.2205243408220772       -1.2117890609520467      9.468940276408587+0.2732167724718304i
-0.9642335055494975       -1.1490229531109146      9.93835940838423+0.3528765672038274i
-1.001675119152985        -1.4061656076255087      9.275153657340427+0.31628350343179873i
-0.7500124149660692       -1.2990309378135554      9.929799429607993+0.40615626854083464i
-0.750736199032324        -1.5586110631617294      9.052796231428315+0.3500889934537925i
-0.5130398575996976       -1.4095354215180553      9.923305877770096+0.44793273224858493i
-1.652882734670768        -0.44229144020041306     9.856298835109797+0.09883770367440585i
-1.4772109886979958       -0.2604759007468612      9.985923931290914+0.07609655466462736i
-1.7072288493965275       -0.15000960532779778     9.951934755775104+0.033296750663224246i
-1.5                      0                        9.9994375402908-1.7281322363682412E-5i
-1.7054959875627569       0.15051427549642327      10.046854999778406-0.03351133389178056i
-1.4772106593504082       0.26047776853607507      10.012951230395439-0.07613161053348723i
-0.4712185464905898       -1.6644929389818814      8.832444129884664+0.37399355755312635i
-0.26047776853607507      -1.4772106593504082      9.919229526961566+0.4749334083437297i
-1.6526797183555855       0.44479235953652957      10.143654020216543-0.09937936256484974i
-1.4095354215180553       0.5130398575996976       10.026143091697204-0.15095640342544925i
-0.16706849225139733      -1.7244290578951678      8.657505885059747+0.38534783266596206i
0                         -1.5                     9.917828628102038+0.48437028184898484i
-1.5485083850690595       0.7225601473413086       10.246447522758146-0.1628466890324651i
-1.2990309378135554       0.7500124149660692       10.038694168413313-0.22314548318098718i
-1.3984996880717646       0.9799687634631224       10.36556241015385-0.22278192624894486i
-1.1490229531109146       0.9642335055494975       10.050271488649932-0.29112508887951655i
0.13842272144382808       -1.7207721640461666      8.681462601970471+0.3881299229153628i
0.2604759007468612        -1.4772109886979958      9.919229100431892+0.4749368930981445i
-1.207848781924884        1.2089622511194882       10.511698365395546-0.27658050314413285i
-0.9641857194123948       1.149063052439335        10.060517726232092-0.3529241239650826i
0.43915387679224327       -1.654917529834579       8.894150496173127+0.38171047221723925i
0.5130374076931423        -1.409536313227687       9.923304993644527+0.4479385858883789i
-0.9836844118469209       1.4016634991216563       10.693454996355742-0.32141345013694306i
-0.750010070993209        1.2990322911339665       10.069075470944675-0.40619017328859913i
0.7214792589985207        -1.547279365387828       9.118960168019747+0.3589815835051095i
0.750010070993209         -1.2990322911339665      9.929798273956514+0.40616294128921937i
-0.7263394076186043       1.5552214443722479       10.91283631619006-0.3561404438759203i
-0.5130374076931423       1.409536313227687        10.075568835090136-0.4479666719898627i
0.9785263024164088        -1.398456435440125       9.319288318214971+0.3231058526283583i
0.9641857194123948        -1.149063052439335       9.938355977191412+0.3528973566765637i
-0.4433354233075031       1.659137388183728        11.126429956116645-0.3797962793550262i
-0.2604759007468612       1.4772109886979958       10.079644699060802-0.47496499886325166i
1.2065196455627076        -1.2089205673343237      9.488637113167696+0.2769001686222304i
1.1490229531109146        -0.9642335055494975      9.948602202766981+0.2910987124164181i
-0.15194000925542003      1.7071249677982574       11.24843451759424-0.3925302734752463i
0                         1.5                      10.08104541535569-0.484400617220949i
1.400126852846976         -0.9836763712696163      9.627420314345672+0.22263195604540445i
1.2990309378135554        -0.7500124149660692      9.960179473714513+0.22311928249537313i
0.2604733176110247        1.4772114441787627       10.079644616815813-0.47496483689786784i
0.15018945803725137       1.7177638434926634       11.303188147423198-0.388728848627461i
1.5503740482788273        -0.725279993048226       9.749092853983766+0.16286468002557045i
1.4095354215180553        -0.5130398575996976      9.97273054278539+0.15093014505934568i
0.5130308300018143        1.4095387073321717       10.075568453821855-0.447964580158025i
0.4560529429712923        1.669550546059036        11.180794085350596-0.3747004463998595i
1.6534433353935112        -0.4436244802929349      9.855423124891303+0.09903758313362061i
1.4772106593504082        -0.26047776853607507     9.98592243735715+0.07610507981810465i
1.7036006801727959        -0.14910042932821638     9.952757156734021+0.03325014237871035i
1.5                       0                        9.99943616754749-9.648324224269914E-6i
0.7500003944253057        1.2990378779550218       10.06907501744239-0.4061885711461168i
0.7417756358358775        1.5536952399041797       10.92099268627368-0.3531387351542124i
1.7037291801029393        0.14851675338455547      10.045927390489615-0.03313713122645879i
1.4772116647960043        0.2604720664305813       10.0129496213486-0.07612282633500174i
1.653421472782773         0.4414811771615677       10.142430617511792-0.09864595977183337i
1.409539002854417         0.5130300180614935       10.026141346605153-0.1509469712894268i
0.9641816539097096        1.149066463814838        10.060517039828754-0.3529210481339684i
0.9939604273711035        1.3971653801522927       10.692548410392613-0.31933384846531604i
1.217413382610106         1.2074519587353862       10.518979234302954-0.27412856429214644i
1.149066861522912         0.964181179939686        10.050267577647903-0.2911030675737116i
1.405751642902688         0.9795546262158545       10.37169248433439-0.22105424326562614i
1.2990382497578632        0.7499997504439765       10.038692363109917-0.22313577199082602i
1.5524363465489834        0.7203059176734528       10.247515726426775-0.16179585170507058i
-0.9965377364775745       -0.5119901962187896      9.968400611550514+0.17626812098065567i
-1.2008663059005218       -0.49791577134374276     9.969522831424937+0.16835349372853395i
-1.0807815042536755       -0.722434315397021       9.955739113059824+0.24754595820396366i
-0.9192376674108731       -0.9192399636727167      9.94335990795739+0.32037240915393583i
-0.8319228040530704       -0.666498582512621       9.95873986644778+0.2328291336136152i
-0.7189976595822637       -0.8618054782722095      9.946516936738693+0.3044751067953506i
-0.7224316832899383       -1.080783263646725       9.93289162103705+0.383786950016018i
-1.2748903559257052       -0.2542726496649377      9.984230078930805+0.08522726184048902i
-1.0319755508591002       -0.2986993336941238      9.981372181364534+0.10236491382450909i
-1.127842537973944        -0.10191755939636227     9.993300313104964+0.03461168060236811i
-1.3                      0                        9.999437533611392-1.7282354286148854E-5i
-0.49791297211385643      -1.2008674665427264      9.92485851095243+0.4340076462239552i
-0.510399172809512        -0.9339474656970057      9.941697661930283+0.33454784553201566i
-0.3309785191594261       -1.0518819784006919      9.934057453887776+0.38094790103676085i
-0.25427302997131845      -1.2748902800748012      9.919765390366132+0.46675087322329073i
0                         -1.3                     9.91800352196366+0.4782674825783751i
-0.10538155234965872      -1.0659210831003534      9.933005466337285+0.38819851606719963i
-1.0664996676627645       0.10472812591542703      10.005760141811662-0.035786349583896336i
-1.2748902800748012       0.25427302997131845      10.014644998549638-0.08526194696524803i
-1.062896677181684        0.3387977857500095       10.019904173321303-0.11587103059352125i
-1.2008674665427264       0.49791297211385643      10.029352078270795-0.16838706178191595i
0.09303996630995835       -1.109229376845453       9.930250434718106+0.40464127830548496i
0.2542726496649377        -1.2748903559257052      9.919765108750399+0.4667530709653189i
-1.080783263646725        0.7224316832899383       10.043135724924339-0.24757948811237843i
-0.9395818995731745       0.5163281894979804       10.030808636330478-0.17861344162734671i
-0.8531621289884193       0.7147457534798374       10.04306430435016-0.24951369187626754i
-0.9192399636727167       0.9192376674108731       10.055514882233206-0.32040585721252146i
0.49791577134374276       -1.2008663059005218      9.924857966406588+0.43401193489114515i
0.30441895262960145       -1.0265167154650547      9.935632235764778+0.37178655852561476i
-0.722434315397021        1.0807815042536755       10.06598304917476-0.3838201010671886i
-0.6753386092608932       0.8357571304674056       10.050814262280518-0.2959714029710993i
0.5084580515760682        -0.9864169887835698      9.938407311991702+0.3538800370002335i
0.722434315397021         -1.0807815042536755      9.932890668271437+0.3837930091054054i
-0.5126260877670702       0.9848384949288346       10.060361188328544-0.3532509112968894i
-0.49791577134374276      1.2008663059005218       10.074015896854936-0.43403992611347464i
0.9192399636727167        -0.9192376674108731      9.943358750737419+0.3203792657066997i
0.6368844629499694        -0.8395735824827906      9.947763802921992+0.29801402419334777i
-0.2542726496649377       1.2748903559257052       10.079108707040918-0.46678140968215986i
-0.3053391794608046       1.0335196511967168       10.063682882396792-0.3744219861204621i
1.080783263646725         -0.7224316832899383      9.955737880312245+0.2475531673340643i
0.8095056677279252        -0.6838518544522508      9.957640502168852+0.23934397067729798i
-0.10393032726764048      1.1209472354201107       10.069364934355267-0.4090718015490772i
0                         1.3                      10.080870304313528-0.47829596722426765i
1.2008674665427264        -0.49791297211385643     9.96952155532446+0.16836076502202105i
0.9467820609760702        -0.5052548130729154      9.968748254205737+0.17463855588267393i
1.0596055206129462        -0.3394856756542466      9.978925017535278+0.1161128534105595i
1.2748902800748012        -0.25427302997131845     9.984228670361546+0.0852354001279521i
0.2542774865505297        1.274889391215389        10.079108483523754-0.46678020277152427i
0.10931980786731789       1.064593217881322        10.06578276551254-0.38770918174584373i
1.3                       0                        9.999436170439575-9.678885510250432E-6i
1.0610299183128573        -0.12096244923492275     9.99213165734202+0.04132473636314326i
0.3316141418675122        1.0762888869531588       10.06635894271474-0.39011755456900943i
0.4979217638008312        1.2008638212276481       10.074015213434375-0.43403602291573823i
0.7224441620852138        1.0807749222983452       10.065981792158626-0.3838132640753562i
0.506476331786558         0.9410708427980866       10.057627498399997-0.337256383082607i
0.7153895190447785        0.8566739894903068       10.052045056851302-0.30273018436606836i
0.9192416125180489        0.9192360185584644       10.05551378976267-0.3204002026790336i
1.0807768060422045        0.7224413440004743       10.043135226867285-0.24757723287966557i
0.8313272910502476        0.6678774959315521       10.04021957458005-0.23335504676746568i
0.9847230645340913        0.5050330166939598       10.030064949198982-0.17405594192757276i
1.2008648344332253        0.4979193201932035       10.029351223785675-0.16838284957946156i
1.1000394500664892        0.08964047751280829      10.004840525779105-0.03054013985312846i
1.2748898793617054        0.2542750390838555       10.014643819930912-0.08525557001342939i
1.0224128903168839        0.29599006887008583      10.017344680939827-0.10154284640700584i
-7.625854657873597        -4.603315491951089       8.913209235705821+0.039749787200745575i
-8                        -4.411764705882353       8.930953449842164+0.03916649773797225i
-8                        -5                       8.91222306555616+0.03978075384742066i
-7.424910408262717        -5                       8.894216186130388+0.040368138856861795i
-7.569000143109421        -4.118581057344222       8.944425226648791+0.038730550929053385i
-8                        -3.823529411764707       8.98644260761222+0.037326400455097775i
-7.1353627379958455       -4.48623169652887        8.886234023593536+0.04063919845943708i
-6.849820816525474        -5                       8.839529426548133+0.042131125114695266i
-7.108866283656047        -3.847417707145536       8.943148824553695+0.03882475477104594i
-6.701052440992873        -4.106509424138128       8.866232884911543+0.0413582624244848i
-7.5429201195567535       -3.5398305944512063      9.015698621755625+0.036367280250247484i
-8                        -3.2352941176470598      9.076642930151248+0.03427316488634307i
-6.529813051203664        -4.5332733729418395      8.805775351547014+0.0432356676629981i
-6.274731224788231        -5                       8.746212100562982+0.04506753772182395i
-6.225725362825035        -4.06867596516           8.791332591267158+0.043846006651204215i
-7.524183243174064        -2.9540878163791366      9.121432054058866+0.032771421878282i
-8                        -2.647058823529412       9.198250391477936+0.030042958029915662i
-6.53494375842273         -3.5729763959851253      8.914799301284331+0.039955124434516105i
-7.055471047400985        -3.260073456426577       9.031065297890366+0.03596174312546541i
-5.972035245454664        -4.531531779163326       8.695149453688954+0.04670241878518172i
-5.699641633050989        -5                       8.610862523955243+0.049156730875737825i
-5.678260735664247        -4.063947377776505       8.666774348720113+0.047861636361298344i
-5.937839295333494        -3.6039772040538196      8.801288581237726+0.04391174360244849i
-7.522585747406066        -2.3600817328027492      9.259570962645855+0.027919125812768755i
-8                        -2.0588235294117663      9.34688733452338+0.024713476520068795i
-6.130852199701442        -3.182670437868081       8.92445985026076+0.040063056818814495i
-7.043399903317458        -2.6638071491020012      9.158123671250676+0.031660638267751395i
-6.5559484409423625       -2.9468744685943338      9.042329093401179+0.03588478761913758i
-5.406309019256829        -4.529558260257419       8.5408062700156+0.05132120130481308i
-5.124552041313747        -5                       8.428539776000042+0.05433109938664004i
-5.115984084003421        -4.06060166039839        8.496385041349804+0.0531232484481824i
-5.389284056305223        -3.5992948083362593      8.664912545170518+0.048610938396575674i
-5.667969659082294        -3.1362982391969463      8.84165729285212+0.04331625648183674i
-7.5229798687369325       -1.7687655293993167      9.42229495434036+0.02200934266680132i
-8                        -1.4705882352941193      9.517318695376092+0.01842137735495999i
-7.045167997489926        -2.067740465613544       9.31538932141626+0.026101975406761315i
-6.008329739867662        -2.64672806290359        9.03825530054945+0.03671521216089169i
-6.562693996943893        -2.3549913092806274      9.194501234848346+0.030749970243235624i
-4.835495010139418        -4.52760905971779        8.33649282364337+0.0570209966257492i
-4.548811659825666        -4.055399559385251       8.275284234145312+0.05952172127699529i
-4.549462449576504        -5                       8.192603628288888+0.06043010173789847i
-4.830948669384619        -3.5922833525775495      8.484963970264523+0.05464981864668133i
-5.104294244484724        -3.138820779113087       8.69397810264433+0.04897354039084873i
-5.3510813073353365       -2.7171450415892693      8.886124145264729+0.04300231857144126i
-4.267012020026996        -3.5820025447736508      8.254927616024995+0.06205220401915812i
-7.523152004228676        -1.1791285577107078      9.603806160418996+0.015217594086272759i
-8                        -0.8823529411764723      9.703694829884771+0.011372021255262649i
-7.045853874394011        -1.4753362079583494      9.494679122744417+0.01950172293095839i
-6.5645530404054355       -1.7583013522484758      9.374578155927109+0.024315531388964712i
-5.542183186390657        -2.215618435963143       9.092851471375248+0.03604067226654068i
-6.076331722789085        -2.0261641378293938      9.237871265826831+0.02987972886484701i
-4.260104510070431        -4.526850354334253       8.073568495693562+0.0636207767274163i
-3.9757647572467456       -4.0550464668903725      7.991990386154996+0.06691582436737185i
-3.701710692799777        -3.587043962803005       7.960495288210283+0.0707158590741701i
-3.9743728578392616       -5                       7.894723541167314+0.06713535454173256i
-4.554643675121397        -3.120988092940557       8.516340937483784+0.055892300994306955i
-4.830235340899057        -2.6676309518198424      8.76618565497901+0.048650695382254396i
-5.099378324494919        -2.343707404893292       8.956163313788268+0.04199728499938078i
-3.9960662278728845       -3.111071771239813       8.287234337728995+0.06472935268267012i
-3.431596650565515        -3.113653703457757       7.992122068992955+0.07559025165623912i
-7.522438567264249        -0.5891933555353893      9.798452219270898+0.0077691308720881i
-8                        -0.29411764705882604     9.89977465067947+0.003836345095992665i
-7.045093743687699        -0.8836167964627399      9.690399290412609+0.012049514145324595i
-6.567275243711601        -1.1742109534798988      9.571066112203157+0.016920511845911312i
-6.089117349696007        -1.4511411790702393      9.438360767592664+0.02252544333650791i
-5.115856882618898        -1.9358657258817025      9.119647629216631+0.036717169906477116i
-5.612269969856568        -1.7022005277201089      9.291804524030821+0.028938349971338016i
-7.523181370666639        -5.954965657249031E-4    9.999238352723708-7.521162619843127E-6i
-8                        0.2941176470588207       10.099110199938112-0.0038672295996307893i
-3.68463570339106         -4.529151605459992       7.743800808245582+0.07067723685079806i
-3.4078900654617423       -4.061353264794096       7.639917108833891+0.0747088524656284i
-3.139985282484718        -3.6006688787625314      7.590642536956826+0.08003459625999852i
-2.8733406015051295       -3.126433947549772       7.617802908288156+0.08784773099452135i
-3.399283266102019        -5                       7.525430552394329+0.07389372348083587i
-4.295952171852181        -2.6394031846722936      8.60537307863787+0.05650610512670232i
-4.642998104665009        -2.1623303649753804      8.919173584666153+0.045774711070110156i
-3.162615012181813        -2.6298632365144763      8.108794408085702+0.08202030880006382i
-2.577678376135284        -2.6056009664109387      7.767497812037405+0.10097470335669866i
-3.7254821568714394       -2.6233391387916107      8.387703643707027+0.06764739925088968i
-4.775803129897877        -1.690799838958548       9.16197910462051+0.03701451463862399i
-7.046577197981646        -0.2949510076246939      9.895181061804657+0.004075716088512939i
-6.570146079560243        -0.5874985244325849      9.781798521864646+0.0086766482141461i
-6.092720835026227        -0.8751878932043171      9.654524674845804+0.0140911862771141i
-5.614421049037429        -1.1565069151268272      9.508260093477164+0.02066022199636997i
-5.131208580275263        -1.427679389242404       9.33821491052209+0.028735682149299006i
-7.523230915812083        0.5875530621646505       10.199872302759552-0.007778312712849663i
-8                        0.8823529411764666       10.295189785826114-0.011402902590099963i
-7.04669927962572         0.29278907044272795      10.102941062347071-0.004076683865199652i
-7.523094081167642        1.176192965356296        10.394138048395227-0.015212856614962323i
-8                        1.4705882352941124       10.481565670974483-0.018452251739879095i
-0.46909012631822855      -3.143423897029411       2.780401693071123+0.06316121607552266i
-0.451111659069678        -3.037725578345175       2.58142828911463+0.06334176159716524i
-0.563678135976185        -3.079991063373227       3.3182835445520737+0.07813726075077972i
-0.3669708895499836       -3.0982015188371332      1.9339749512215867+0.044998058455018634i
-0.41890481945458313      -2.9515386766931675      2.440424983376025+0.06467377460396863i
-0.5394122168779529       -2.954170784578311       3.313315604523175+0.08496756543705883i
-0.6796747238155398       -2.997191005805676       3.986391703840607+0.09648131714362107i
-0.6820817248794698       -2.8619848005576802      4.256378036015019+0.11056051896145432i
-0.8373933457997895       -2.9213762580857834      4.733806886838232+0.11418049988603131i
-0.7929395962986538       -3.062907791281529       4.383159542797411+0.10016022981965308i
-0.6856392544848608       -3.1359381590214697      3.9042492847372903+0.08775217827400522i
-0.5755040841864877       -3.1981904117730457      3.4165530609928614+0.0751057061465241i
-3.1159477001642353       -4.535291140496549       7.341791526082729+0.07741437446745413i
-2.8468799573024737       -4.081208151531638       7.206284567312308+0.0819723697259509i
-2.3428168172367334       -3.1808589934747196      7.130859948955851+0.09899320801060589i
-2.0195764907532014       -2.793364781545209       7.118084488518478+0.11624793691939021i
-2.5855686955314394       -3.6279280802700336      7.125056795008952+0.0887389236696688i
-0.3919224350748822       -3.1918022782316737      2.409924636796726+0.05269359520574912i
-0.29667419603434375      -3.1791561751520114      1.7788043638344586+0.038256953309072195i
-0.46644853058530394      -3.255505542063905       2.9754246916113822+0.063382268415229i
-2.8241936743647766       -5                       7.076225539020076+0.07986159299095291i
-2.127544034423607        -2.191190827410566       7.891999311563402+0.12817544828193614i
-4.041675409333113        -2.154679001727038       8.752552028288958+0.05621078910783749i
-4.342085473559009        -1.7042264468749513      9.067614625992803+0.043575702850815724i
-2.5803671859418076       -2.0903080035739663      8.235825786728721+0.10413276982902875i
-2.937531935925638        -2.22718100952623        8.282457005565758+0.08867628737053092i
-3.4301847844517632       -2.08295086681468        8.588430779353816+0.07061280342000788i
-4.6250061146850845       -1.2421250261725403      9.354424470090494+0.030524243025057154i
-6.571920056507325        -0.0015824340518917903   9.998853402186883+8.192146903538308E-6i
-6.0974861955269395       -0.2953389237757704      9.881995181032584+0.004834093646329927i
-5.621715728563268        -0.5893727863708782      9.746126254596843+0.010856248013753565i
-5.138482450504969        -0.889772805446056       9.581742801535965+0.018772887396107493i
-7.0451997267976605       0.8805890745323807       10.307450090074143-0.012040426438562185i
-6.570191694045293        0.5857184773050514       10.216433408569387-0.008681604960807622i
-7.519008228438865        1.7650027192191071       10.57559001135971-0.022004334021689168i
-8                        2.0588235294117583       10.651996411495931-0.02474432936739118i
-7.04143079527433         1.467521863049108        10.501912448280214-0.019448981141032617i
-7.520862896621486        2.3580526025242876       10.73885512750721-0.027934003841404462i
-8                        2.647058823529404        10.80063180507331-0.030073769246786133i
-0.18808426997321614      -3.1645139008926364      1.16139820702445+0.024059320631363876i
-0.25                     -3.05                    0
-0.34861376624113455      -2.9990275295597955      1.6088647113836216+0.04138753853317382i
-0.45331586480830305      -2.8641562907151976      3.0314159110494363+0.0847111271983153i
-0.35784238282131203      -2.9020534594877643      2.0966111587347176+0.059269603519159546i
-0.3828394168836153       -2.817423211003918       2.8101443735272613+0.08321471863037898i
-0.1352897314427992       -3.05                    0
-1.6914904645991207       -2.448870960902328       7.202038632546217+0.14300697662642373i
-1.398528431910744        -2.8430378761690034      6.2244410676796+0.12837835848892565i
-1.351187790923602        -2.476405454234831       6.7558418902564865+0.15632483647712778i
-1.8310609512688765       -1.273815792675998       9.035289139298037+0.15988216299961208i
-1.5077208543585425       -1.255687401540423       9.17772883712052+0.21024723673776322i
-1.696519192076543        -0.9789299827829043      9.429050605654318+0.16462145682214568i
-1.6922378590475986       -1.9962007147202512      7.933042271101837+0.16602770054177027i
-1.975108111410149        -1.6887347104658235      8.484389822945458+0.14748916306960516i
-1.6128394311568899       -1.597279679874783       8.594758902253654+0.1900278398000754i
-0.8087241558474101       -2.7552491866565316      4.993314289256969+0.13077842493445282i
-1.0017859637848632       -2.7975270929490508      5.454246242950837+0.13140081478658575i
-0.5625240557707081       -2.8052716122572896      3.8788237296969785+0.10791213394972947i
-0.6639712799915128       -2.7384752426926964      4.540715464016287+0.12601620601393668i
-0.06529098400205122      -3.164734507862766       0.9409842396719021+0.01882939848538188i
-6.106226635438361E-16    -3.05                    0
-0.9982848928246829       -3.092422017656588       5.023260671787433+0.10816870733760764i
-0.8119254839140841       -3.1905261206232396      4.375098898726408+0.09408497549258026i
-0.690113502718215        -3.286822561272102       3.9488717907136643+0.08267719658245339i
-0.5555304989959182       -3.3159947250331974      3.466933383511671+0.07204217456612176i
-1.7514825028272514       -3.254392809357366       6.381884251836525+0.10656442645163618i
-1.2820464225357788       -3.3226556533991336      5.543230376867683+0.1035954980229582i
-2.550765826449525        -4.549282419183702       6.8582476945336746+0.08285894678059284i
-2.2817477610407977       -4.111810968093344       6.66865461822256+0.08739446643871594i
-2.028851831264107        -3.666551154952357       6.524603142290865+0.09473549473525351i
-0.36042871311824437      -3.2827244809410447      2.567398096686789+0.053304069770584404i
-0.2531353467470635       -3.273108606978461       2.0960883648075934+0.042743955296985325i
-0.12872354979815154      -3.2684308393140475      1.7429713699349254+0.03467444734181702i
-0.4462153258180629       -3.400897459375058       3.237523198123672+0.06478090551271275i
-2.258033384977667        -5                       6.554313299722836+0.0839148657502964i
-2.394425115337163        -1.713077201999279       8.55037175867097+0.11357468438011224i
-2.2144604905398273       -1.2926774661563767      8.97665880943571+0.11881632562066073i
-2.0229056739163602       -0.9459788606124447      9.349298056666326+0.1191748285623571i
-3.8358935197041797       -1.6534016188307088      8.98006474487626+0.052638985717782395i
-4.137933476916963        -1.3100112140757927      9.242413332299567+0.03898022720396054i
-2.9368143209175215       -1.7271819743170873      8.688947320597777+0.08362980475473293i
-3.40539031649934         -1.5455435810013376      8.94796043580466+0.06200531510756531i
-4.206887562632558        -0.8591197647026703      9.508247478777887+0.02634833115511379i
-4.680177492520803        -0.61433679944238        9.680956413300747+0.015656538415725132i
-6.10041886962103         0.2898167172575227       10.114645587171905-0.00477135137821181i
-5.627912542504574        -0.00797989996783568     9.996000793673796+1.3334255876202187E-4i
-5.158365737947963        -0.3086159163213064      9.854000257465477+0.006645366522331385i
-6.566319956910435        1.1735410137572462       10.427638511017902-0.016945341917867233i
-6.089362142641751        0.8793970604609234       10.346167576742692-0.014197845985620608i
-7.028661597569731        2.058837119679079        10.6819706094373-0.026087148530439985i
-6.551014771820592        1.7536904557824406       10.623919830009939-0.024345695272999252i
-7.521912697656728        2.9401597827940265       10.874629135168616-0.03270519117370246i
-8                        3.235294117647051        10.922237002642076-0.03430391974963512i
-6.980343261513477        2.677688424918171        10.849093321712543-0.03201148197022247i
-7.54959892297236         3.4987917439162985       10.976477604408183-0.03617226159567077i
-8                        3.8235294117646963       11.012442479992153-0.03735725780847885i
-1.8360245941255702       -0.6696664620107637      9.641725764234295+0.11303321121831574i
-0.25                     -2.95                    0
-0.45754433074397216      -2.754137753713838       3.583448001226529+0.10644708229031767i
-0.29305232269180553      -2.8281724247243796      2.1511550341973003+0.06615992529017395i
-0.35029976662634454      -2.7308522491902725      3.2078181575831155+0.10057631886755485i