% Model:              VLR_3_01V03.mph
% Version:            COMSOL 5.5.0.292
% Date:               Jun 21 2020, 14:31
% Dimension:          2
% Nodes:              2411
% Expressions:        1
% Description:        Electric potential
% Length unit:        cm
% x                       y                        V2 (V)
-1.5535674301118985       -0.7250537289575332      9.266932814038567+0.30178462546964896i
-1.2990322911339665       -0.750010070993209       9.918839701584961+0.4336590892066215i
-1.409536313227687        -0.5130374076931423      9.94460064845729+0.29607958562203385i
-1.4071150951701807       -0.9867280394613388      8.971438381829593+0.4068079823622712i
-1.149063052439335        -0.9641857194123948      9.895391224482198+0.558814019647787i
-1.6548609614837          -0.44408964578145776     9.557959438488746+0.18548853588983716i
-1.4772109886979958       -0.2604759007468612      9.971915806507386+0.150152339547236i
-1.7066719012616387       -0.14997715136248954     9.851734433803967+0.06270044952895609i
-1.5                      0                        10.000020302508112-6.130070074383641E-6i
-1.7060659870883783       0.14944879244641976      10.147489122652445-0.06254892080207679i
-1.4772106593504082       0.26047776853607507      10.02812497557111-0.15016545532614692i
-1.2100014225004592       -1.2145155890832293      8.727453648506382+0.5016268305979265i
-0.9642335055494975       -1.1490229531109146      9.874983919398627+0.6676390767949413i
-0.9808588571512353       -1.4025658593635149      8.515636693774239+0.5787779612759599i
-0.7500124149660692       -1.2990309378135554      9.85827498991777+0.756643348608376i
-0.7253673467705514       -1.5535964295480897      8.30679450033976+0.6342534984602238i
-0.5130398575996976       -1.4095354215180553      9.84586586168341+0.8226684598931032i
-1.651596829938444        0.4435870166023558       10.436679853033338-0.1861759005580564i
-1.4095354215180553       0.5130398575996976       10.055440079525795-0.2960921780389516i
-1.550243368292198        0.7242237410808803       10.723948235249436-0.30294645764243094i
-1.2990309378135554       0.7500124149660692       10.081200877333977-0.4336705241781233i
-0.4447180321313081       -1.6552641809998263      8.172722806816994+0.6730167410615193i
-0.26047776853607507      -1.4772106593504082      9.83822132317045+0.8633063022168498i
-1.398102206011652        0.9800953933977085       10.983318321540805-0.4109395266979865i
-1.1490229531109146       0.9642335055494975       10.104654079584908-0.5588500772202407i
-1.2064978915402866       1.2066454760128513       11.22921226118258-0.5046284449743812i
-0.9641857194123948       1.149063052439335        10.125060402739189-0.6676696634644043i
-0.15018526690060952      -1.7088889691935722      8.087755127264144+0.6909743650414507i
0                         -1.5                     9.835623791139412+0.8770992768200122i
-0.9779036178621328       1.3976863746452828       11.449870239743591-0.5820018820629745i
-0.750010070993209        1.2990322911339665       10.141764838815632-0.7566492712510101i
0.15000289988867863       -1.7097266037611216      8.081400620175161+0.6903467159813311i
0.2604759007468612        -1.4772109886979958      9.838220840642453+0.8633089239691499i
-0.7209926588856781       1.5469138559556188       11.64011198915012-0.6397102631812374i
-0.5130374076931423       1.409536313227687        10.154173564696269-0.8226721687544881i
0.4448652850238319        -1.6510778323190989      8.20264666010736+0.675828135978548i
0.5130374076931423        -1.409536313227687       9.845865351648998+0.8226716982375238i
-0.4407811725606484       1.6513914799981715       11.793174318889923-0.6767834594428016i
-0.2604759007468612       1.4772109886979958       10.161817829283747-0.8633080107108365i
0.7224899742198758        -1.5476720633075396      8.351548067878852+0.638668077568899i
0.750010070993209         -1.2990322911339665      9.858274117957265+0.7566485042995471i
-0.14780824255943478      1.6971757613181508       11.821373792842062-0.7001326247889005i
0                         1.5                      10.164414806758298-0.8770980831213279i
0.9782868638470064        -1.4004744057196878      8.534172687045562+0.5808357331554338i
0.9641857194123948        -1.149063052439335       9.874978526360726+0.6676689362750339i
0.14897609732724182       1.7097893529747725       11.918459440860223-0.6904153634140767i
0.2604733176110247        1.4772114441787627       10.161817432430823-0.863306237174814i
1.205911937365765         -1.2112725388739345      8.753292819647564+0.5043012562472811i
1.1490229531109146        -0.9642335055494975      9.895384789781133+0.5588494849544398i
0.5130308300018143        1.4095387073321717       10.15417300869167-0.8226691050243811i
0.45101168048599277       1.66408161919761         11.900320416864476-0.6652955864151111i
1.3994638582947576        -0.984704448732699       8.998850948662836+0.41052119375555435i
1.2990309378135554        -0.7500124149660692      9.918837967417693+0.43366973800775005i
0.7500003944253057        1.2990378779550218       10.141764410981434-0.7566469078118958i
0.7335730054743848        1.55318610714133         11.710039575159511-0.6309684691972476i
1.5524680586012898        -0.7262814306151539      9.266791264467734+0.30251105319507093i
1.4095354215180553        -0.5130398575996976      9.944598755665723+0.2960912507052i
0.9904751235912871        1.3996214002646141       11.496365863606618-0.5748119330568068i
0.9641816539097096        1.149066463814838        10.12505950711141-0.6676642892885202i
1.651890024939124         -0.4442876927072807      9.561965960238313+0.18634270055435828i
1.4772106593504082        -0.26047776853607507     9.971913852099936+0.15016442545388647i
1.2162907616822904        1.2083696225275338       11.265876104658474-0.4990777218613475i
1.149066861522912         0.964181179939686        10.104646876691746-0.5588109941913467i
1.7041408382310754        -0.1515849171930095      9.851337171543053+0.06360261138718494i
1.5                       0                        10.000018504292461+5.125168424804847E-6i
1.706553965863823         0.14738079247870137      10.145575410764051-0.061645403814721424i
1.4772116647960043        0.2604720664305813       10.0281225662731-0.15015104451684913i
1.2990382497578632        0.7499997504439765       10.081197848894456-0.4336532796144601i
1.410257969066405         0.9818760506005706       11.022496335762433-0.4049620547755515i
1.5548996092692167        0.7201247300767353       10.725821624296762-0.3001277370168176i
1.409539002854417         0.5130300180614935       10.055437296918562-0.29607596991963675i
1.6551575490770367        0.44015324254096144      10.437037853568368-0.1840416468099122i
-0.9965377364775745       -0.5119901962187896      9.936111870977024+0.3386861155282242i
-1.2008663059005218       -0.49791577134374276     9.938050919838243+0.3285002201541267i
-1.0807815042536755       -0.722434315397021       9.909893424820703+0.4776730493734884i
-1.2748903559257052       -0.2542726496649377      9.968430508465238+0.16747666751736565i
-1.0319755508591002       -0.2986993336941238      9.962765976850774+0.19744127171531822i
-1.127842537973944        -0.10191755939636227     9.987327115509656+0.06727602223682351i
-1.3                      0                        10.000020282459843-6.0386629887952905E-6i
-0.9192376674108731       -0.9192399636727167      9.8850125362574+0.6093767179450978i
-0.8319228040530704       -0.666498582512621       9.916624966904287+0.44185628668838234i
-0.7189976595822637       -0.8618054782722095      9.891988004271676+0.5722847878721938i
-0.7224316832899383       -1.080783263646725       9.864398345062448+0.7183687738789922i
-1.0664996676627645       0.10472812591542703      10.013074192361444-0.0691943765013485i
-1.2748902800748012       0.25427302997131845      10.031610068791991-0.1674886703423724i
-1.062896677181684        0.3387977857500095       10.042259355597098-0.22388021245894113i
-1.2008674665427264       0.49791297211385643      10.061989169913018-0.3285090835417354i
-0.49791297211385643      -1.2008674665427264      9.848931728418172+0.8000388983003323i
-0.510399172809512        -0.9339474656970057      9.882698704514189+0.621343174145562i
-0.3309785191594261       -1.0518819784006919      9.86766924678345+0.7008042792718149i
-0.25427302997131845      -1.2748902800748012      9.839324482021789+0.8507118005643731i
0                         -1.3                     9.836042866949265+0.8680046937400688i
-0.10538155234965872      -1.0659210831003534      9.865796806595482+0.7106478369881365i
-1.080783263646725        0.7224316832899383       10.090146387047616-0.47768025834517447i
-0.9395818995731745       0.5163281894979804       10.064517979571512-0.3417947429448291i
-0.8531621289884193       0.7147457534798374       10.089442317630297-0.4738063753865937i
-0.9192399636727167       0.9192376674108731       10.115027048891019-0.6093821669452053i
0.09303996630995835       -1.109229376845453       9.860309606157005+0.7396782687870594i
0.2542726496649377        -1.2748903559257052      9.839324212603392+0.8507136712838198i
-0.722434315397021        1.0807815042536755       10.135641023872717-0.7183727141457764i
-0.6753386092608932       0.8357571304674056       10.104820845102012-0.5551532072072299i
-0.5126260877670702       0.9848384949288346       10.123758665952975-0.6553231284109885i
-0.49791577134374276      1.2008663059005218       10.151107363378415-0.8000411011371827i
0.49791577134374276       -1.2008663059005218      9.848931465811262+0.800040984765905i
0.30441895262960145       -1.0265167154650547      9.87086036220537+0.6839065999806953i
-0.2542726496649377       1.2748903559257052       10.16071436943793-0.850712787476482i
-0.3053391794608046       1.0335196511967168       10.1300632569487-0.6885895784861821i
0.5084580515760682        -0.9864169887835698      9.876077009789482+0.6563957152904631i
0.722434315397021         -1.0807815042536755      9.86439780183184+0.7183723518736208i
-0.10393032726764048      1.1209472354201107       10.141211335455873-0.7475212992230275i
0                         1.3                      10.163995656095313-0.8680033586211646i
0.9192399636727167        -0.9192376674108731      9.885011682671507+0.6093818133779931i
0.6368844629499694        -0.8395735824827906      9.894700660812445+0.5578695055839055i
0.2542774865505297        1.274889391215389        10.16071401888652-0.8507104999355795i
0.10931980786731789       1.064593217881322        10.134072851938074-0.7097536408972708i
1.080783263646725         -0.7224316832899383      9.909892370752905+0.47767975164174464i
0.8095056677279252        -0.6838518544522508      9.914426872701013+0.4534895433159i
0.3316141418675122        1.0762888869531588       10.135456222192412-0.7171387927111691i
0.4979217638008312        1.2008638212276481       10.151106347314325-0.8000355561119014i
1.2008674665427264        -0.49791297211385643     9.938049647341428+0.32850831489260773i
0.9467820609760702        -0.5052548130729154      9.936911265876873+0.3344294294525099i
0.7224441620852138        1.0807749222983452       10.135639172243934-0.7183624111593009i
0.506476331786558         0.9410708427980866       10.118241599238923-0.6261138642012433i
1.0596055206129462        -0.3394856756542466      9.95769162622755+0.22434398383206083i
1.2748902800748012        -0.25427302997131845     9.96842874132755+0.16748778485210658i
0.7153895190447785        0.8566739894903068       10.107409130117231-0.5688848117427764i
0.9192416125180489        0.9192360185584644       10.115025526481125-0.609373425718542i
1.0807768060422045        0.7224413440004743       10.090146067790519-0.4776774890057028i
0.8313272910502476        0.6678774959315521       10.083587124100724-0.4427746152211381i
0.9847230645340913        0.5050330166939598       10.063067363550665-0.3341265965263095i
1.2008648344332253        0.4979193201932035       10.061988209802854-0.3285028376520648i
1.3                       0                        10.000018493704612+5.191423631230764E-6i
1.0610299183128573        -0.12096244923492275     9.984939786351413+0.07992508184824319i
1.1000394500664892        0.08964047751280829      10.011186972707238-0.059192862602185856i
1.2748898793617054        0.2542750390838555       10.031608521126158-0.16747891698075015i
1.0224128903168839        0.29599006887008583      10.036939588463836-0.19567354539693263i
-4.5965963447312275       -3.0846814713157134      0.9031431197177735+0.0014186415375663263i
-4.5                      -3.05                    0
-4.59995701334916         -2.9984358349639435      0.9108791165902607+0.001647132972440545i
-4.704341331042981        -3.0497973798039153      1.4568741852088605+0.002351180885859849i
-4.677202240383523        -2.950206452016343       1.4472825956386413+0.002666880871104077i
-4.612121791472357        -2.9014032030366765      1.2339882699937508+0.002576939874655059i
-4.5                      -2.95                    0
-4.5466019994273195       -2.830316979226342       1.2348954576487847+0.003073310172902012i
-4.5438797571364695       -3.1553690920368647      0.79050149974306+0.0011233928412356326i
-4.655464608543262        -3.158772963961761       1.256381086241497+0.0018224475273294286i
-4.787107893140775        -3.158332228336232       1.7518518363562057+0.0024990993813553274i
-4.828248613950578        -3.0565647036683354      1.9518909342407877+0.0029771941664612895i
-4.4395286129236595       -3.1523469444622356      0.45914034903419987+6.139261144929264E-4i
-4.387412538980868        -3.05                    0
-7.617633844235148        -4.59744884772797        4.355963029369337+0.0031987837795753697i
-8                        -5                       4.352011003383394+0.0031969690323312254i
-7.4062314829593525       -5                       4.262494448429432+0.003176559880229595i
-8                        -4.411764705882353       4.440057178805289+0.0032146826417714185i
-4.634754479635606        -2.817595674363427       1.6468157307323685+0.003670008627298009i
-4.705460958740431        -2.86044439993579        1.797575376249517+0.0035611365598234896i
-4.794712954587601        -2.945547880227506       1.9683278694527329+0.003356400849478147i
-4.932104450141409        -2.991157269752177       2.3672775898222116+0.0035922641402708557i
-4.930280405539611        -3.141504512313559       2.213720280381407+0.003056554090836081i
-4.604275659382985        -2.741857300172428       1.835265631316623+0.004512055796059657i
-4.388423544709806        -2.9500000000000006      0
-4.437694392606802        -2.8380472274947985      0.838522965228314+0.002513633054812893i
-4.4967309570390315       -2.727148367318634       1.5888667114264463+0.004581613684180606i
-4.5678521220918284       -2.628169764989158       2.191691827805702+0.005997270562948755i
-4.497936212017256        -3.2499312741538007      0.8642648785102859+0.0011264959271624607i
-4.604662113363209        -3.2549445581505037      1.1810630548615275+0.0015759197974542325i
-4.7245118340485135       -3.2632481410351946      1.5630280645832684+0.0020839578813194298i
-4.879800565719706        -3.280105669234622       2.0151136571630306+0.002601039492681216i
-4.3190526598146555       -3.157744518394655       0.3102965165039125+3.865212921494214E-4i
-4.254962524005341        -3.05                    0
-4.187124937086374        -3.1638864195797076      0.2389413664417772+2.827224466806367E-4i
-4.3861569702440155       -3.2598036607809675      0.6513490102434222+8.118482668090645E-4i
-4.451860280596956        -3.334478884066506       0.9189608911943704+0.0011353335690302997i
-4.115502084124262        -3.05                    0
-4.048770223906336        -3.168724164237713       0.19425656402682454+2.215263157249949E-4i
-3.975993538899708        -3.05                    0
-3.908817481767394        -3.171810534686225       0.16223077710045172+1.8016043092895393E-4i
-3.8364849936751537       -3.05                    0
-3.7690924743491596       -3.1736272928201665      0.13777527369512252+1.5005194172414916E-4i
-4.257237873548838        -2.9499999999999997      0
-4.315703623108924        -2.833952880776284       0.6828471142816431+0.002536759843244089i
-6.8124629747288905       -5                       3.9957821803777644+0.0031006661499321715i
-7.1073317071136595       -4.470716893983402       4.219926642634988+0.003174695982776415i
-7.574606031102736        -4.104762638774093       4.509706730806385+0.003232836052036779i
-8                        -3.823529411764707       4.705004842307031+0.00325307129763311i
-4.706062506545911        -2.751425470269543       2.1308684897592802+0.004606604804092486i
-4.807911842012025        -2.796487413371146       2.3331941536827308+0.004418758811365334i
-4.929813678090066        -2.8476307933890976      2.592836617575468+0.004306267908376376i
-5.0683892468807965       -3.28557232937453        2.4854947419914013+0.0030467275740005263i
-5.056068736467761        -2.894598815554996       2.8523386204379944+0.00424103003189621i
-5.085829917546963        -3.078273294196154       2.687663464890679+0.003598981074673729i
-4.676783066720064        -2.6368995401092645      2.4294206915410332+0.005795017690288804i
-4.3797370983893025       -2.7151164367729628      1.4044036224607355+0.004848236147007166i
-4.445219536107801        -2.6049689397285154      2.0307059780598036+0.006588410443084093i
-4.519032611878469        -2.529801007727107       2.474581655433897+0.0074384574427610334i
-4.6303177123969235       -2.511394735507769       2.759833240065485+0.007280145777589315i
-6.489414430256879        -4.5032897782095285      3.835192334725606+0.003065455387580757i
-4.5498634594865806       -3.352369494077931       1.1617603127048959+0.0014523203713269932i
-4.76399020337507         -3.378061752899561       1.7210128242323883+0.002140483928517487i
-4.6563168089471745       -3.3499763836374674      1.426565953059564+0.0018044245287105833i
-5.195170119113923        -3.4463658853836945      2.674895899858969+0.0029859165125208733i
-4.922658743009208        -3.4994903322324467      2.1082785237170487+0.002442332177734668i
-4.260007531581921        -3.2794549951761156      0.5246708212013731+6.242194103006094E-4i
-4.123946718750482        -3.287284599180363       0.422486724442463+4.849533159715853E-4i
-3.981404446599093        -3.2895807661887697      0.34402898183608693+3.841715735245725E-4i
-4.348556524529646        -3.384865348432496       0.8230131477086434+9.757450507050729E-4i
-4.472368995718           -3.4348477381918654      1.1045294519180129+0.001318003678322596i
-3.842239509871385        -3.3002991527875274      0.29897434103162257+3.270086772246169E-4i
-3.7024208412378856       -3.2954074442095207      0.24904104875643454+2.6829597663661267E-4i
-3.6276157145368195       -3.1742470708509107      0.11771572599103262+1.2632280385998856E-4i
-6.220967788465945        -5                       3.5622001858059256+0.002931811376706656i
-3.6969764484505987       -3.05                    0
-3.557467903226044        -3.05                    0
-3.4868758750100195       -3.1771140937176168      0.1037379908681396+1.1007962786858818E-4i
-3.41795935800149         -3.05                    0
-3.3478279104253232       -3.1780150639059377      0.09095506829895776+9.569363684325237E-5i
-4.117732136407633        -2.95                    0
-4.186323649301493        -2.826764744849751       0.6326711685337641+0.0028682352569969483i
-3.9781479961904296       -2.95                    0
-4.050850111346765        -2.825563836995027       0.5863067504752973+0.0032084508649930857i
-4.254495071306323        -2.70333740681996        1.2970445020259183+0.005390485216439989i
-6.686204296999872        -4.068264750561599       4.1269278267924925+0.0032000587184030254i
-6.218661540708946        -3.9781831287561307      3.789246277430437+0.0031513632383101944i
-7.105443524610569        -3.832689276500479       4.492798627238073+0.0032695383295045784i
-7.546876491272114        -3.533557545506183       4.848534243634863+0.00328313877379352i
-8                        -3.2352941176470598      5.147063784419063+0.0032670596574912044i
-4.808912647786899        -2.6516429216984436      2.7258210228297095+0.00559722922712417i
-4.902508306321234        -2.722233014706497       2.78732372272183+0.005065593493566335i
-5.0283448232995145       -2.734490989622281       3.0754924029094775+0.005011638220756028i
-5.145860434738963        -2.7876624567861183      3.243496338976706+0.004753449273738798i
-5.320259568167346        -3.1978809521787923      3.0844381941197208+0.00357568400721816i
-5.483054933743388        -3.5225538895981394      3.135075292734182+0.0031848496298465773i
-5.229253428288084        -2.936376976514982       3.1920381142350003+0.004211697423338546i
-4.779385032568074        -2.5156087173052564      3.0564204117225864+0.006815124276004944i
-4.328540519420588        -2.583259970440749       1.9402948554070154+0.00740284150503685i
-4.417453109370919        -2.47985957363982        2.5000128950277243+0.008627023251937841i
-4.534583364371985        -2.4074225274979626      2.9567105642207694+0.008928326940811434i
-4.686360427062799        -2.3681159300662045      3.341632205455705+0.00852006055992116i
-5.180202977335106        -3.7257222573676643      2.561790378239888+0.0026619240935806684i
-5.5732184221734204       -4.003187396090898       3.058016194518469+0.0028403169069874984i
-5.900323626269446        -4.507092727211834       3.307436822679938+0.0028403470366149194i
-4.6389944296192525       -3.519224178493679       1.5151291081949645+0.001774374267153956i
-4.859771700337898        -3.773469798328027       2.0208822604987673+0.002165047808491485i
-4.194904352163086        -3.4240601536086395      0.6894862676203514+7.861884402336178E-4i
-4.0589678824731035       -3.3846020366198335      0.5171318990959389+5.795607597061547E-4i
-3.9221450323755196       -3.43218597228522        0.48502653764659404+5.308549638752944E-4i
-4.372232641363613        -3.5909404406528713      1.1137436578797144+0.0012542999652091456i
-3.5528616056128657       -3.2993362680372855      0.21523405016317007+2.289505246145543E-4i
-3.769556782899256        -3.439182906535264       0.4127189551489776+4.4439226661060956E-4i
-3.6330754035232955       -3.4023064349660426      0.32511893775034584+3.4673718511104537E-4i
-3.4175094807824546       -3.3111044569446935      0.19633551237934643+2.0697429545672494E-4i
-3.277875707456028        -3.3037961544553873      0.16702043038628347+1.7485212470331495E-4i
-5.631712714544701        -5                       2.9884646277007185+0.0026263675948869076i
-3.208255200965985        -3.1761025449616955      0.07848430641358504+8.202479216479348E-5i
-3.1380372487192156       -3.3012180587194115      0.14534317311143544+1.5131733004872735E-4i
-3.068895258825021        -3.1757787866739697      0.06892539625037719+7.165938213550033E-5i
-3.278450812776935        -3.05                    0
-3.8385638559732254       -2.95                    0
-3.9118012796510873       -2.8258876370306822      0.5521374445195942+0.003614332433656373i
-3.698979715756021        -2.95                    0
-3.7717261425002877       -2.824781203616974       0.5356240344259624+0.004156232356090253i
-3.5593955755388174       -2.95                    0
-3.6319108544218257       -2.823931114547633       0.5250166004017935+0.004788456906759458i
-4.122030763328394        -2.6974544562006773      1.2152098526224153+0.006066059497492914i
-3.9890650929929037       -2.70327541786874        1.118448278029911+0.0066375001108892944i
-4.193668712903937        -2.562991746861584       1.8748419643755427+0.008568335259416903i
-5.8668706749461235       -3.6171223401666217      3.609807354102346+0.0032812982144514173i
-6.191545919329597        -3.587312777436067       3.991737418809956+0.003363775911664435i
-5.675717865175023        -3.2406744310261972      3.64360677687441+0.0036631868317106436i
-6.56716983571366         -3.557335796043089       4.346369104750816+0.0033750702191254786i
-7.06669173157232         -3.2549389804011106      4.909022357416723+0.003380897525306807i
-7.534517660347059        -2.9501308479496497      5.371582622489139+0.0032879978775421427i
-8                        -2.647058823529412       5.760608987206841+0.0031823178053773365i
-4.953490347679513        -2.5725919428923723      3.274035265320769+0.006037026696609237i
-5.165892788521427        -2.6290076853762576      3.5855744354292436+0.005443621842032857i
-5.282441302407384        -2.7534102657746677      3.581836642942071+0.004843490332964255i
-5.504401466423252        -2.875349859157849       3.791027729463852+0.004376013729499444i
-4.88309520863714         -2.3651424354488437      3.688397367841548+0.007640521250683179i
-4.280663173320851        -2.433288414145178       2.507070475571384+0.010319248928133668i
-4.396679451125823        -2.3204165822994063      3.0786524651200966+0.011038138539741386i
-4.549178082491667        -2.2340001666095346      3.5778732811518767+0.010752000279985336i
-4.743047615415725        -2.1749940180290523      4.025718367908238+0.009771631281337354i
-5.063162108141341        -4.109746074113433       2.3514307329465716+0.002315027807397131i
-5.303962623915973        -4.550064792422434       2.6391441108895672+0.002429404565846031i
-4.527891470607169        -3.8102390460399316      1.5052234377368616+0.0016215546170969227i
-4.702098950194312        -4.035761594293149       1.8392196891927743+0.001888322710536618i
-4.069814666365991        -3.590491969157736       0.763815085251249+8.350632362083726E-4i
-3.8536295783636634       -3.5698629151886427      0.5800102144780213+6.232616444903624E-4i
-4.206496416509147        -3.8223528127014816      1.0996150687305901+0.0011739712615883942i
-3.4946650371747614       -3.4545964075005258      0.32107103048186025+3.386671633390631E-4i
-3.6493592225419156       -3.5968630308173664      0.4891056844413106+5.173268938461414E-4i
-2.999335928698814        -3.303584866166069       0.12959267969518287+1.3432893438200985E-4i
-3.3449507490157284       -3.4537687540514055      0.277512514370918+2.9054692703875054E-4i
-3.20608749976737         -3.4168317452274435      0.22292037666625095+2.3227043619746232E-4i
-3.0720515941896336       -3.4399872135224734      0.2094966017158225+2.1726397220767185E-4i
-5.042457640623457        -5                       2.3295984515444035+0.002172587198829158i
-2.9295160434675673       -3.174123660046112       0.0601258893858499+6.225459490608662E-5i
-2.8609423681703126       -3.291846624440067       0.10967707031894898+1.1330296139246659E-4i
-2.788834344275164        -3.1744349914859957      0.05339008625807868+5.50994889899712E-5i
-2.712320227954433        -3.3040500992815858      0.10146766382881134+1.0450930096249593E-4i
-2.6501441828832815       -3.1778274360194896      0.04879049530551108+5.022389654367134E-5i
-3.1389422675523804       -3.05                    0
-2.999433722327826        -3.05                    0
-3.419811435321614        -2.9499999999999997      0
-3.491034794537374        -2.8248668121246534      0.5118403251942077+0.005456470959534895i
-3.8424544789029103       -2.7017053637033537      1.0745659287136313+0.007640167306122154i
-3.7031937533210537       -2.6912670462782935      1.0857755607139061+0.00908700930113262i
-3.5669169823143316       -2.7024120812551278      1.0184315441428353+0.009942333348491183i
-3.2802272951044107       -2.95                    0
-3.351582278806454        -2.8237438099054373      0.5107762854564671+0.006316791880438846i
-3.140643154887207        -2.95                    0
-3.214004570064936        -2.8243741702708505      0.505429504732906+0.007198906093392494i
-4.051911121551851        -2.5553139004778855      1.7950751889264345+0.009831778629410945i
-3.914940368314232        -2.598257061542653       1.5391149856550776+0.00999050196851824i
-4.119632617598479        -2.405492750458549       2.463759522144585+0.012371419477978056i
-6.16029452749561         -3.2346002321036105      4.251552323001561+0.0036329250902013962i
-5.816721830580661        -2.9471138010450977      4.158100232819916+0.004086553952025171i
-6.595255385681531        -2.976512264361598       4.902666155524702+0.003624779677951734i
-7.062834771155824        -2.6677000865278004      5.533593173670535+0.003427796094448251i
-7.530703186746606        -2.3622358759119138      6.068849761477204+0.0031530706639099387i
-8                        -2.0588235294117663      6.529591163784036+0.0029096125110067666i
-5.135665544273657        -2.3961678400201234      4.038015230101038+0.0065771425508267395i
-5.407688822873708        -2.5558574080670624      4.149124502552592+0.00535350883331756i
-5.71333353437858         -2.6719092804294733      4.398645241144617+0.0046391345960162126i
-4.980056817845842        -2.1467444775723474      4.427295878911984+0.0084349889906174i
-4.227438392563223        -2.2481668197700686      3.1650512407780305+0.013847836702037637i
-4.37127972762371         -2.1198272129662477      3.762462448232995+0.013766497768956392i
-4.563142592922084        -2.013233584382163       4.310117140242444+0.012551155248028608i
-4.7965162856202195       -1.9227500772040707      4.826688575310741+0.010799675677953832i
-4.7010201999862025       -4.471523204791812       1.9156724836116155+0.0018711024018159762i
-4.381014288055238        -4.113394474267208       1.4546277579414957+0.0014945884717589878i
-3.857272187635637        -3.790590697147627       0.758961998221879+8.008869175494392E-4i