% Model:              VLR_3_01V03.mph
% Version:            COMSOL 5.5.0.292
% Date:               Jun 21 2020, 18:44
% Dimension:          2
% Nodes:              2539
% Expressions:        1
% Description:        Electric potential
% Length unit:        cm
% x                       y                        V2 (V)
-1.552260654301598        -0.7234444574457287      9.323833619351005-2.5724836103819415E-5i
-1.2990322911339665       -0.750010070993209       9.999990813751849-2.9329095991516212E-5i
-1.409536313227687        -0.5130374076931423      9.999990813751863-2.9343371637575006E-5i
-1.4080145515287197       -0.9825562807120608      9.05171898943472-2.539505682555533E-5i
-1.149063052439335        -0.9641857194123948      9.999990813751836-2.9316115957210575E-5i
-1.653715385352272        -0.44365372818770643     9.590514121568624-2.591290573576635E-5i
-1.4772109886979958       -0.2604759007468612      9.999990813751877-2.93585198746531E-5i
-1.706865460231377        -0.15019672327589137     9.861441822538895-2.599393036608678E-5i
-1.5                      0                        9.999990813751882-2.9374111192711794E-5i
-1.7077273678048164       0.14934826616370178      10.138156563773714-2.599551246876335E-5i
-1.4772106593504082       0.26047776853607507      9.999990813751886-2.9389702638593917E-5i
-1.2177230443922005       -1.207730892247174       8.82098745562075-2.5111326798761623E-5i
-0.9642335055494975       -1.1490229531109146      9.999990813751841-2.9304834652210322E-5i
-0.9960828789130498       -1.4016826143786791      8.580227901699265-2.467582820026721E-5i
-0.7500124149660692       -1.2990309378135554      9.999990813751843-2.929561135221451E-5i
-0.7428702251814447       -1.5621295273628049      8.32578823300061-2.4110804912586603E-5i
-0.5130398575996976       -1.4095354215180553      9.999990813751836-2.92887709933846E-5i
-1.6538665553413938       0.44460613649861525      10.410961539406687-2.5945162420857823E-5i
-1.4095354215180553       0.5130398575996976       9.999990813751898-2.9404850954711096E-5i
-1.5496859461349577       0.7243876121274141       10.672040794975247-2.5817020439758932E-5i
-1.2990309378135554       0.7500124149660692       9.999990813751891-2.9419126684109547E-5i
-0.46015988802563         -1.6639651806457074      8.209081308574666-2.3887715626584474E-5i
-0.26047776853607507      -1.4772106593504082      9.999990813751818-2.928456137169224E-5i
-1.4004948484752777       0.9813919215610145       10.922943502111535-2.5592383538939386E-5i
-1.1490229531109146       0.9642335055494975       9.99999081375188-2.9432109574936115E-5i
-1.211187264538621        1.2107724481373232       11.17132617092316-2.525313784123505E-5i
-0.9641857194123948       1.149063052439335        9.999990813751873-2.9443390625137687E-5i
-0.16496871429487864      -1.7103800869001526      8.196005977024472-2.3904845152957652E-5i
0                         -1.5                     9.999990813751799-2.9283132714361365E-5i
-0.9793823959034933       1.403268078608687        11.378655397000976-2.4943292063202458E-5i
-0.750010070993209        1.2990322911339665       9.999990813751864-2.945261168082662E-5i
0.1349620297495264        -1.7086182894853001      8.22671800419309-2.3998641487414267E-5i
0.2604759007468612        -1.4772109886979958      9.99999081375178-2.9284561307219003E-5i
-0.718174373405812        1.5534042585606846       11.55756831921677-2.4612983203906722E-5i
-0.5130374076931423       1.409536313227687        9.999990813751838-2.945945210058564E-5i
0.4328101096863419        -1.6550232483674112      8.318421166971971-2.4223035740142208E-5i
0.5130374076931423        -1.409536313227687       9.99999081375177-2.92887709567271E-5i
-0.4345692480943007       1.6535402042332048       11.673422728125074-2.4387420850244487E-5i
-0.2604759007468612       1.4772109886979958       9.999990813751802-2.9463661733339252E-5i
0.7167542940646534        -1.5525132254805898      8.451711869270996-2.450983336245099E-5i
0.750010070993209         -1.2990322911339665      9.999990813751749-2.9295611390462156E-5i
-0.1377422689895256       1.7077747338458646       11.768194504256853-2.4157299443915145E-5i
0                         1.5                      9.999990813751769-2.9465090321881024E-5i
0.976967514593686         -1.4015705880469354      8.637722877564558-2.4877043143012203E-5i
0.9641857194123948        -1.149063052439335       9.999990813751726-2.9304832431224543E-5i
0.2604733176110247        1.4772114441787627       9.999990813751765-2.9463661714797413E-5i
0.161706107764826         1.7076143213971688       11.780495025915398-2.4118292559095942E-5i
1.2068054419300163        -1.209069630792634       8.849552287694289-2.522578340432277E-5i
1.1490229531109146        -0.9642335055494975      9.999990813751692-2.931611344827318E-5i
0.5130308300018143        1.4095387073321717       9.999990813751772-2.945945220132156E-5i
0.4574637222492577        1.656200797241926        11.72999666835774-2.4209731922079525E-5i
1.3997257928581008        -0.9814775745769219      9.079014045906787-2.5516699532734067E-5i
1.2990309378135554        -0.7500124149660692      9.99999081375166-2.93290963532894E-5i
0.7250194436934774        1.538179619409778        11.475484311947513-2.4860259534842333E-5i
0.7500003944253057        1.2990378779550218       9.999990813751772-2.945261217077249E-5i
1.5504777024295635        -0.7259043186362496      9.322960617192413-2.5731772001335717E-5i
1.4095354215180553        -0.5130398575996976      9.99999081375166-2.934337207594577E-5i
0.9752869957997262        1.3919387213327392       11.305039487273111-2.5179790691186334E-5i
0.9641816539097096        1.149066463814838        9.999990813751772-2.9443391181039844E-5i
1.6551938935266193        -0.445160144856996       9.586263902475144-2.5884970638108925E-5i
1.4772106593504082        -0.26047776853607507     9.999990813751673-2.9358520396081034E-5i
1.2078147999459277        1.2092085191280761       11.154192919955292-2.5316075051291485E-5i
1.149066861522912         0.964181179939686        9.99999081375176-2.9432106874153044E-5i
1.7066175656999305        -0.1490584237095729      9.862688706140299-2.5999234940693503E-5i
1.5                       0                        9.999990813751696-2.937411183077335E-5i
1.7054671235537955        0.15011933095501656      10.137736390353519-2.6027547309305342E-5i
1.4772116647960043        0.2604720664305813       9.999990813751703-2.9389702912342335E-5i
1.3969406173172643        0.9800574769493366       10.908522799524889-2.565426401267652E-5i
1.2990382497578632        0.7499997504439765       9.999990813751724-2.941912647729391E-5i
1.5462471130282491        0.7235450121047181       10.662239672588603-2.5871880552994412E-5i
1.409539002854417         0.5130300180614935       9.999990813751712-2.9404850972975905E-5i
1.6543523455932174        0.44642185293537856      10.414162383494707-2.5930244229573388E-5i
-0.9965377364775745       -0.5119901962187896      9.99999081375202-2.9338949304434756E-5i
-1.2008663059005218       -0.49791577134374276     9.999990813751854-2.9339999499489367E-5i
-1.0807815042536755       -0.722434315397021       9.999990813751845-2.9324518676770295E-5i
-1.2748903559257052       -0.2542726496649377      9.999990813751873-2.9356717697095352E-5i
-1.0319755508591002       -0.2986993336941238      9.999990813752062-2.9353611589911396E-5i
-1.127842537973944        -0.10191755939636227     9.999990813752026-2.9367125037648067E-5i
-1.3                      0                        9.99999081375188-2.9374111195822363E-5i
-0.9192376674108731       -0.9192399636727167      9.999990813751838-2.9310857562590833E-5i
-0.8319228040530704       -0.666498582512621       9.99999081375205-2.9328245921159844E-5i
-0.7189976595822637       -0.8618054782722095      9.999990813752-2.931471435798763E-5i
-0.7224316832899383       -1.080783263646725       9.999990813751849-2.9299557079264285E-5i
-1.0664996676627645       0.10472812591542703      9.999990813752069-2.9381295178430688E-5i
-1.2748902800748012       0.25427302997131845      9.999990813751888-2.9391504743409653E-5i
-1.062896677181684        0.3387977857500095       9.999990813752039-2.939735555960654E-5i
-1.2008674665427264       0.49791297211385643      9.999990813751896-2.9408222783301522E-5i
-0.49791297211385643      -1.2008674665427264      9.99999081375184-2.9291092001334E-5i
-0.510399172809512        -0.9339474656970057      9.999990813752035-2.9309630020321208E-5i
-0.3309785191594261       -1.0518819784006919      9.999990813752003-2.9301389837494672E-5i
-0.25427302997131845      -1.2748902800748012      9.999990813751813-2.9285840809411114E-5i
0                         -1.3                     9.999990813751792-2.9284049022988102E-5i
-0.10538155234965872      -1.0659210831003534      9.999990813752008-2.9300371156007347E-5i
-1.080783263646725        0.7224316832899383       9.99999081375189-2.9423703708973806E-5i
-0.9395818995731745       0.5163281894979804       9.99999081375207-2.9409593433828844E-5i
-0.8531621289884193       0.7147457534798374       9.999990813752042-2.942329266608106E-5i
-0.9192399636727167       0.9192376674108731       9.99999081375188-2.9437364978588977E-5i
0.09303996630995835       -1.109229376845453       9.999990813751966-2.9297359833418214E-5i
0.2542726496649377        -1.2748903559257052      9.999990813751769-2.9285840914007618E-5i
-0.722434315397021        1.0807815042536755       9.999990813751866-2.9448665605563182E-5i
-0.6753386092608932       0.8357571304674056       9.999990813752065-2.9431728864783263E-5i
-0.5126260877670702       0.9848384949288346       9.99999081375202-2.9442117965963482E-5i
-0.49791577134374276      1.2008663059005218       9.999990813751843-2.945713076929035E-5i
0.49791577134374276       -1.2008663059005218      9.999990813751765-2.9291092294180827E-5i
0.30441895262960145       -1.0265167154650547      9.99999081375199-2.9303143574239483E-5i
-0.2542726496649377       1.2748903559257052       9.999990813751808-2.9462382123244858E-5i
-0.3053391794608046       1.0335196511967168       9.999990813752026-2.9445565329529016E-5i
0.5084580515760682        -0.9864169887835698      9.999990813751937-2.9305993896298174E-5i
0.722434315397021         -1.0807815042536755      9.999990813751747-2.929955746505938E-5i
-0.10393032726764048      1.1209472354201107       9.999990813751962-2.9451676900569982E-5i
0                         1.3                      9.999990813751763-2.946417398565476E-5i
0.9192399636727167        -0.9192376674108731      9.999990813751708-2.9310858076579614E-5i
0.6368844629499694        -0.8395735824827906      9.999990813751973-2.9316213368823815E-5i
0.2542774865505297        1.274889391215389        9.999990813751763-2.9462382082064826E-5i
0.10931980786731789       1.064593217881322        9.999990813751998-2.9447759172639258E-5i
1.080783263646725         -0.7224316832899383      9.999990813751669-2.932451932849876E-5i
0.8095056677279252        -0.6838518544522508      9.999990813751937-2.9327040269541183E-5i
0.3316141418675122        1.0762888869531588       9.999990813751943-2.944852774453641E-5i
0.4979217638008312        1.2008638212276481       9.999990813751761-2.9457130623648206E-5i
1.2008674665427264        -0.49791297211385643     9.999990813751658-2.934000024613821E-5i
0.9467820609760702        -0.5052548130729154      9.999990813751907-2.9339393893093044E-5i
0.7224441620852138        1.0807749222983452       9.99999081375177-2.944866531874495E-5i
0.506476331786558         0.9410708427980866       9.999990813751985-2.9439087904195184E-5i
1.0596055206129462        -0.3394856756542466      9.999990813751872-2.9350819332993136E-5i
1.2748902800748012        -0.25427302997131845     9.999990813751669-2.9356718286117805E-5i
0.7153895190447785        0.8566739894903068       9.999990813751943-2.94331558053161E-5i
0.9192416125180489        0.9192360185584644       9.999990813751769-2.9437365242853444E-5i
1.0807768060422045        0.7224413440004743       9.999990813751735-2.9423704884960957E-5i
0.8313272910502476        0.6678774959315521       9.999990813751952-2.9420072441799226E-5i
0.9847230645340913        0.5050330166939598       9.999990813751905-2.940880006814592E-5i
1.2008648344332253        0.4979193201932035       9.999990813751712-2.9408223805721308E-5i
1.3                       0                        9.999990813751685-2.9374111831519028E-5i
1.0610299183128573        -0.12096244923492275     9.999990813751905-2.9365813680318305E-5i
1.1000394500664892        0.08964047751280829      9.999990813751875-2.938025841833603E-5i
1.2748898793617054        0.2542750390838555       9.999990813751708-2.9391505505769263E-5i
1.0224128903168839        0.29599006887008583      9.999990813751923-2.9394427703345275E-5i
-5.135141345260304        -3.183172678613971       1.1166192165136875-5.880037632486858E-7i
-5.048350356480576        -3.167068217240236       0.7792525586969498-4.0976670570318966E-7i
-5.120714245373296        -3.099693863180341       0.9819671676954113-5.285946982847139E-7i
-5.099194101091518        -3.2511058527979997      1.0755192966182643-5.582760270794001E-7i
-5.001043604488205        -3.2606355011092365      0.8267926566258651-4.2604255932217786E-7i
-4.939202554211195        -3.1610910312153564      0.45139028972090683-2.340458268337486E-7i
-5                        -3.05                    0
-5.112154662726014        -3.000204125917428       0.9364496516407165-5.249539722397949E-7i
-5.194483891286156        -3.246804639967034       1.3570646080577573-7.061582647436297E-7i
-5.213133815142219        -3.1513609355441616      1.3850804163221782-7.344240044931954E-7i
-5.219737114616886        -3.0538173468500434      1.4337280549748204-7.79224693502066E-7i
-7.619002805990894        -4.597637000988644       3.563926699390399-1.6540758532941527E-6i
-8                        -4.411764705882353       3.6549355346569077-1.6915976786132596E-6i
-8                        -5                       3.5596271250582467-1.6521442042554106E-6i
-5.161955405800733        -3.327014032524763       1.3174476704294653-6.769897553351722E-7i
-5.24821527894247         -3.328457525392978       1.5389565419478768-7.90448540886028E-7i
-5.067635791987091        -3.3635499414795276      1.124331402008657-5.739752755460509E-7i
-4.883910634516916        -3.271382300000161       0.619806570772102-3.160522469196678E-7i
-4.967968188641937        -3.3496156639221413      0.8998403886240723-4.5816079410404274E-7i
-7.406567705706927        -5                       3.4633733845790666-1.6119425060541623E-6i
-4.814072906560321        -3.1688854201784737      0.3083962434674677-1.572464901721701E-7i
-4.887808936663978        -3.05                    0
-5                        -2.95                    0
-5.216004535167777        -2.950557338521652       1.5459104630059846-8.672972178683388E-7i
-5.118793797810839        -2.8989547166405383      1.216860346528007-7.129258144556448E-7i
-5.312530423643681        -3.2347898842942224      1.701217800646049-8.844147481590785E-7i
-7.576680320415428        -4.104671764027654       3.7300782005421915-1.7233538802032135E-6i
-8                        -3.823529411764707       3.944731875577085-1.8092179174564975E-6i
-5.327785202622831        -3.121557065713345       1.7839181720409625-9.453948403843828E-7i
-5.321131974967164        -3.0123051727642314      1.8582034945432506-1.0084589605487289E-6i
-7.111766003832118        -4.47174853503321        3.4173586312637636-1.5938215308728847E-6i
-5.372056446942942        -3.3775393504146463      1.8419974145524727-9.373279577122936E-7i
-4.761509782189803        -3.300040433725267       0.5182105010269832-2.6150973477470677E-7i
-5.20005023193799         -3.4561397361072292      1.4803346696305921-7.49378165116247E-7i
-5.016872827346368        -3.4835492600807205      1.1429018552970989-5.760361441557211E-7i
-4.870637679803702        -3.410722868156584       0.8226489359717192-4.14893062633275E-7i
-6.813135414064489        -5                       3.1804667915175955-1.4916819525234649E-6i
-4.686071676264805        -3.176262613483986       0.2414905196998656-1.2177880040012845E-7i
-4.620961795701317        -3.3123320813657173      0.42061132508643434-2.10577791629717E-7i
-4.755792612389566        -3.05                    0
-4.548141061617621        -3.176317745634458       0.1885712793806963-9.433769001548676E-8i
-4.482578343176616        -3.2957658991609096      0.3221881941703073-1.604571114363726E-7i
-4.407208147122166        -3.1735463064248606      0.14978530626533496-7.450689554439027E-8i
-4.334202434575737        -3.295546154170961       0.2649072789826729-1.3133032005348592E-7i
-4.266055599190017        -3.1736505993552035      0.12504708280800314-6.19419936537396E-8i
-4.888041601602852        -2.95                    0
-4.9353850045533045       -2.8335911689093414      0.8289386491045168-5.478184508122129E-7i
-5.3123551901864605       -2.8878095572870013      2.0308314054596726-1.1359091864201502E-6i
-5.044659716557285        -2.8253462973257046      1.2010273516849759-7.464541252553667E-7i
-5.2120061151017865       -2.8500588566082783      1.7646264144277308-1.0212091156668932E-6i
-5.134752622747733        -2.8104795384922996      1.5998876221759974-9.60522849529006E-7i
-5.4477073144129795       -3.216804379962168       2.0681991971773965-1.0693941445100936E-6i
-5.6094686562884535       -3.3764598252883715      2.3419960407952263-1.1778259392766036E-6i
-7.114083095377115        -3.845854182060524       3.6993970779714087-1.7166453732033914E-6i
-6.700027311426602        -4.079699790410581       3.307762221102506-1.5539674772143944E-6i
-7.547026529713584        -3.5401193764262997      4.095200082277702-1.8720537710937527E-6i
-8                        -3.2352941176470598      4.436315213876451-2.000168821106401E-6i
-5.452470572954058        -3.060264674865241       2.2041486635549714-1.1659895738957775E-6i
-5.39950963127895         -2.944129390107674       2.204168222258813-1.1987930623708648E-6i
-6.24615472624887         -3.645473011615922       3.1242528459258576-1.4973083804804733E-6i
-6.280737408460875        -4.010413658184879       2.972092162740507-1.4146755665352415E-6i
-5.906261640475499        -3.6745792704997213      2.6820288268409267-1.305284074936141E-6i
-6.502860787513182        -4.507910659515894       3.015207083611299-1.4225770464309592E-6i
-5.414366776432081        -3.6525847514429084      1.9247175876026072-9.555245682161712E-7i
-4.713857793803708        -3.4562060413798488      0.6890845971269465-3.445522861371655E-7i
-5.108192663352322        -3.69617989568689        1.4339743147272652-7.127796276588902E-7i
-4.860913231483446        -3.6001934423367805      1.0122301910069151-5.047167405784292E-7i
-4.195429694179967        -3.300721133362113       0.2294534404173527-1.1338518468596256E-7i
-4.126977915015427        -3.1721067350206322      0.10513417933837425-5.191870732111897E-8i
-4.058081586929798        -3.291656911867736       0.19071526093463445-9.40189732902241E-8i
-3.984354125684851        -3.173284091187637       0.09113010656941493-4.489570812810271E-8i
-4.543551930360913        -3.4490357302474286      0.5353761534052115-2.6628399400688734E-7i
-4.405477489428128        -3.4121319802905385      0.41326067485711115-2.049252788115132E-7i
-4.269428003783316        -3.4327480116116353      0.3698852464938676-1.8280573142453715E-7i
-3.90516150116026         -3.3018221678107404      0.16986711840956162-8.356424960082545E-8i
-6.221968789466947        -5                       2.7347443472186126-1.296487013637551E-6i
-3.841347066451085        -3.177184687116542       0.08142434914320919-4.0040790374049796E-8i
-3.7738872983265934       -3.3098492768696737      0.15425475993740279-7.577821666876608E-8i
-3.7072428700222475       -3.17588356911059        0.07088455507978908-3.481165742319599E-8i
-3.6455991278242577       -3.2943981823137056      0.12891737576632892-6.326634376013126E-8i
-4.615951899130199        -3.05                    0
-4.476074568853527        -3.05                    0
-4.336197238576853        -3.05                    0
-4.196319908300181        -3.05                    0
-4.056442578023507        -3.05                    0
-3.916565247746834        -3.05                    0
-4.756310846315618        -2.95                    0
-4.814468520960421        -2.834020747849687       0.6590102278964866-4.693668823590724E-7i
-4.616459914096865        -2.95                    0
-4.68528175238141         -2.8289106035609404      0.6028181519479503-4.6279530417680945E-7i
-4.87734420728848         -2.7140996445066707      1.3593061183634172-9.453823352054676E-7i
-5.432188213596251        -2.8202972796596746      2.5197681675826185-1.3923997711824589E-6i
-4.98975626939159         -2.7206593971700537      1.5445204082796395-1.0119861279775605E-6i
-5.314304760083927        -2.7735219311864694      2.2994782855972615-1.3175390032444035E-6i
-5.096168047160958        -2.7315691792756653      1.778468398998889-1.1067195042414378E-6i
-5.204410399352158        -2.741922099883305       2.0641342006795003-1.2302547026161183E-6i
-5.632843242272216        -3.1373958556133155      2.5612298762840244-1.3154461644748464E-6i
-5.894911243335028        -3.2532675512632308      2.9422504668201657-1.4621347936319298E-6i
-6.587087469594543        -3.6096138432815836      3.4926030929776433-1.6478645247119252E-6i
-6.218523154152893        -3.3536636421075507      3.31168608428737-1.5998505710913104E-6i
-7.05993604269343         -3.2725686296595815      4.133595461293148-1.9038039726397213E-6i
-7.530595970708659        -2.95683079243662        4.676542285790791-2.0970189611339706E-6i
-8                        -2.647058823529412       5.129973462247002-2.2493533832081223E-6i
-5.576537978944186        -2.9143973234394878      2.7112788505698058-1.439730783849232E-6i
-4.94379423536546         -2.603510503400961       1.9684987847052107-1.342547519100128E-6i
-5.6864091442646165       -4.052421908932885       2.2851531482763927-1.1068841781553487E-6i
-5.9345980552786575       -4.516150798125048       2.4994300445697033-1.1940100001933867E-6i
-5.263791285337929        -3.968275974927772       1.7362171630324943-8.507553734733534E-7i
-5.041619652328673        -3.894465618667976       1.425738164065445-7.020614948933869E-7i
-4.643803783522424        -3.628011703933974       0.795023310556294-3.9428617044556955E-7i
-4.834278330142093        -3.825353661822125       1.140090412104158-5.628173390818475E-7i
-4.117832625585498        -3.4386183881465104      0.3182561705194196-1.5687411978725554E-7i
-3.9847200733438157       -3.4040135331656343      0.2547394586567661-1.2537155798257995E-7i
-4.397626735244053        -3.5875641062617545      0.5689942398087829-2.8119395483872587E-7i
-4.195313857091088        -3.556321730521779       0.43612085928014704-2.1494607335392628E-7i
-3.8491501788189444       -3.455846473312904       0.25371133652172134-1.2464845407012697E-7i
-3.701110597761934        -3.434934761969863       0.21027819341437137-1.031934935913791E-7i
-3.575352798525741        -3.3980768999988054      0.17045176957615513-8.358791859627113E-8i
-5.633047382546035        -5                       2.1788823768502494-1.0444603663100428E-6i
-3.4988884443082133       -3.297130981804691       0.11414898642941344-5.596448488775674E-8i
-3.5691252228678985       -3.1738692683636196      0.06140792757645474-3.0125375603268085E-8i
-3.776687917470161        -3.05                    0
-3.6368105871934877       -3.05                    0
-4.4765671894272625       -2.95                    0
-4.548781732170915        -2.8272654619917237      0.5614824031621543-4.6463630372120556E-7i
-4.752940016663753        -2.7067285599605317      1.2405798553455136-9.233631085729399E-7i
-4.619535452321062        -2.7032217670412755      1.1535071704673063-9.221957273139858E-7i
-7.526586013154269        -2.3668390479092416      5.471231263396684-2.3769782084980084E-6i
-8                        -2.0588235294117663      6.009423141001096-2.52692657138527E-6i
-4.827408352275194        -2.5862471613065123      1.8679471001098975-1.3507582927422316E-6i
-5.542838376633375        -2.7462864948474257      2.934104039101338-1.6013976421128542E-6i
-5.426941310899485        -2.6910845111536443      2.791593331438857-1.5758240172333586E-6i
-5.064888915426784        -2.617908572517962       2.146641726756796-1.3831854990084063E-6i
-5.298319487109692        -2.6489396267177194      2.5943779167224807-1.5272952836707793E-6i
-5.176731809035831        -2.6218258942315447      2.386866508252869-1.4702791592144446E-6i
-5.84499101096725         -2.962074989539479       3.1809839777105755-1.6194072274095603E-6i
-6.097561778585094        -3.0564346872388635      3.4568874712187094-1.7022934705947633E-6i
-6.523445136252592        -3.0042431261629274      4.017715723227382-1.9050604251284738E-6i
-7.050027238690676        -2.6791047594481228      4.8353828794514095-2.189557114896579E-6i
-5.736880091800763        -2.7279461530543303      3.354981121863809-1.7677316833356987E-6i
-5.017556529744814        -2.5228931444806735      2.418043794741449-1.6108634020049449E-6i
-4.916045237923663        -2.4764297794807804      2.436880149777345-1.7062671691163672E-6i
-5.319539215208882        -4.441319890518911       1.851711236149303-8.958383919966985E-7i
-4.9731089513542726       -4.102207368578296       1.4152766023775831-6.924271519691602E-7i
-4.532628245570356        -3.83387835976767        0.8484662552265257-4.17809679872198E-7i
-4.6880184378236605       -4.032083585794215       1.0934505728555508-5.363241661079059E-7i
-3.9987428898361856       -3.594899682388751       0.38188980503735476-1.8771359593472608E-7i
-4.209311863810573        -3.783967609559923       0.593894431055837-2.918913565361105E-7i
-3.4466546566311513       -3.440166755752054       0.16963464411689996-8.312031629738542E-8i
-3.363587180268895        -3.3085615017331023      0.10593111560425506-5.189839967021023E-8i
-3.580584635942415        -3.5413224214469485      0.23693907633636044-1.161438124966863E-7i
-3.772318340047917        -3.6102042507827967      0.3167965559234874-1.5541915881228182E-7i
-3.2877193180466535       -3.448025419534967       0.15070967108413771-7.379702443801435E-8i
-5.044125975625123        -5                       1.59895495382073-7.732515264245368E-7i
-3.225342293496131        -3.2960489972496383      0.08956846256427718-4.385779807462192E-8i
-3.14872330000884         -3.4004042073208702      0.11850879717107943-5.800685479165298E-8i
-3.4292791297873064       -3.1758044839204573      0.05502492299785138-2.6970970374884194E-8i
-3.29008114538507         -3.1752890519559838      0.04852725261522265-2.377019543814944E-8i
-3.496933256916815        -3.05                    0
-4.336674464757661        -2.95                    0
-4.4095066162387715       -2.8259008575520905      0.5364330502883005-4.778491908133E-7i
-4.484347448163665        -2.706517544053731       1.0719551694043126-9.198713232799753E-7i
-4.196781740088059        -2.95                    0
-4.269133839045938        -2.822698406606438       0.5290042906956786-5.064918682880233E-7i
-4.056889015418456        -2.95                    0
-4.128109847263144        -2.82029180102103        0.5242050451072893-5.386966212197584E-7i
-3.916996290748854        -2.95                    0
-3.987771921324992        -2.8192999551095252      0.5180420617404868-5.703239689573713E-7i
-3.7771035660792514       -2.95                    0
-3.8500651866211286       -2.820918316811292       0.5049879472881864-5.939831997973871E-7i
-3.637210841409649        -2.95                    0
-3.708574225301696        -2.8232790914015466      0.49154796959282-6.179295497659417E-7i
-7.527468951146645        -1.7759839251272975      6.4462046191845195-2.669886963290374E-6i
-8                        -1.4705882352941193      7.04113804399459-2.7910700234978343E-6i
-4.692973904039122        -2.574322254233316       1.7737798165063852-1.373396540108871E-6i
-4.552374044319767        -2.5760133932501788      1.6610086890477973-1.3809256239275374E-6i
-7.051219921730468        -2.0833781236173476      5.765273265404795-2.5291677948074093E-6i
-4.7808263054278335       -2.4428188394608354      2.4009831878461942-1.7944179906989175E-6i
-5.562544624371656        -2.5764061128075033      3.339503581477882-1.8488644330866312E-6i
-5.397872513554422        -2.571812028631125       3.0265256070285673-1.7493727623473405E-6i
-5.127311852764764        -2.4963286851129673      2.7120502094316588-1.732782262935341E-6i
-5.26965612973233         -2.4934712952202274      2.991267629445828-1.8159686760913035E-6i
-6.088372362636003        -2.668706386187764       3.9956572404205235-1.995886379839147E-6i
-6.562607907415519        -2.389609935217027       4.949070857602442-2.3192025783912403E-6i
-5.757904753901095        -2.4271696608646693      3.991137948769697-2.135589002366509E-6i
-5.034424875124238        -2.3866783529752835      2.9401002083307506-1.971383172756567E-6i
-4.892261129604442        -2.316430675260417       3.004380936436556-2.150219939448976E-6i
-4.705008987722529        -4.448808435388618       1.239387098981701-6.034605250547355E-7i
-4.376363957824626        -4.100806141169402       0.8631806785848427-4.226777112744541E-7i
-3.906530105493423        -3.823961055358173       0.4681801434815607-2.29545092221805E-7i
-4.0826781957631795       -4.0312626394177595      0.6459749050243522-3.1636417924709563E-7i
-3.386878406099778        -3.618304490319647       0.22869011817508908-1.1197803693277405E-7i