% Model:              VLR_3_01V03.mph
% Version:            COMSOL 5.5.0.292
% Date:               Jun 21 2020, 18:46
% Dimension:          2
% Nodes:              1174
% Expressions:        1
% Description:        Electric potential
% Length unit:        cm
% x                       y                        V2 (V)
-1.403535348135416        -0.9826986047501887      9.768491944665117-6.571583185537662E-5i
-1.149063052439335        -0.9641857194123948      9.999961483518728-6.8603213724425E-5i
-1.2990322911339665       -0.750010070993209       9.999961483518726-6.860700307284713E-5i
-1.5510187119923209       -0.7241193734646466      9.840777645528808-6.597822104263162E-5i
-1.409536313227687        -0.5130374076931423      9.999961483518724-6.861110435250809E-5i
-1.2129717005727843       -1.2114403481133835      9.69101215982404-6.53868359269741E-5i
-0.9642335055494975       -1.1490229531109146      9.999961483518721-6.859985589281812E-5i
-0.9850103935519012       -1.4066012878202867      9.606442581060671-6.497054056256537E-5i
-0.7500124149660692       -1.2990309378135554      9.999961483518709-6.85970532907646E-5i
-0.7243727955276784       -1.5553000095412024      9.532625223979446-6.46110648141854E-5i
-0.5130398575996976       -1.4095354215180553      9.999961483518714-6.859493412433634E-5i
-1.6537448551545537       -0.4452404112770388      9.906020184684103-6.613124406756005E-5i
-1.4772109886979958       -0.2604759007468612      9.999961483518746-6.861540725367847E-5i
-1.7071084882984058       -0.15145686495106675     9.968589396872588-6.620294166439128E-5i
-1.5                      0                        9.999961483518764-6.861981025345163E-5i
-1.7084776292106072       0.14861057936589128      10.030879890496927-6.619552452049156E-5i
-1.4772106593504082       0.26047776853607507      9.999961483518783-6.862421327437674E-5i
-0.4437086920141479       -1.6542860716562684      9.477934038270938-6.434442114740072E-5i
-0.26047776853607507      -1.4772106593504082      9.999961483518707-6.859361001180833E-5i
-1.6549766499659284       0.443892258746717        10.093908574498686-6.613430787711002E-5i
-1.4095354215180553       0.5130398575996976       9.999961483518796-6.86285161550435E-5i
-0.1510121656341592       -1.7045062785719427      9.447147886835394-6.418957366730319E-5i
0                         -1.5                     9.999961483518707-6.859315685046901E-5i
-1.5519654672396666       0.7249003700135762       10.160058675931062-6.59831215257807E-5i
-1.2990309378135554       0.7500124149660692       9.999961483518813-6.863261738328848E-5i
0.14636756980544618       -1.7068150963215594      9.44214153896746-6.415060378687659E-5i
0.2604759007468612        -1.4772109886979958      9.999961483518724-6.859360978102403E-5i
-1.403690500888047        0.9847018353434757       10.233122860627445-6.572391545023574E-5i
-1.1490229531109146       0.9642335055494975       9.999961483518847-6.863640747610282E-5i
0.4429348460075852        -1.6578227710025724      9.470184272547227-6.428237243710396E-5i
0.5130374076931423        -1.409536313227687       9.999961483518742-6.859493370653963E-5i
-1.2105946125363325       1.2124275386471441       10.308223133976329-6.542965733717471E-5i
-0.9641857194123948       1.149063052439335        9.9999614835189-6.863976509759265E-5i
0.7221611897758463        -1.5521420836308781      9.540197878466662-6.467600285528757E-5i
0.750010070993209         -1.2990322911339665      9.999961483518751-6.859705271428387E-5i
-0.9827230600444933       1.4055207099629388       10.390088903764381-6.50403053934404E-5i
-0.750010070993209        1.2990322911339665       9.999961483518959-6.864256686979362E-5i
0.9800623677740001        -1.4033535666977897      9.615201341864983-6.505363476455021E-5i
0.9641857194123948        -1.149063052439335       9.999961483518769-6.859985448705491E-5i
-0.7245086379743805       1.5535541819146605       10.46399536865797-6.467971835578842E-5i
-0.5130374076931423       1.409536313227687        9.999961483519005-6.864468588958326E-5i
1.2087048990545184        -1.2124765875507362      9.693092582120366-6.541436444294596E-5i
1.1490229531109146        -0.9642335055494975      9.999961483518788-6.860321211462236E-5i
-0.4450924591992937       1.6583574048693774       10.531893158607174-6.430798578021738E-5i
-0.2604759007468612       1.4772109886979958       9.999961483519048-6.864600983201055E-5i
1.4023710510050122        -0.9845242245501808      9.767841283553757-6.571248565138792E-5i
1.2990309378135554        -0.7500124149660692      9.999961483518826-6.860700221942685E-5i
-0.14968676091764965      1.7092289320866043       10.564276629185445-6.414412238894581E-5i
0                         1.5                      9.999961483519078-6.864646279695566E-5i
1.5502941494082503        -0.7241901534051318      9.841117284583332-6.598514684840469E-5i
1.4095354215180553        -0.5130398575996976      9.999961483518867-6.861110346378647E-5i
0.15060159420956493       1.7113148185574492       10.569551389385497-6.410206719355065E-5i
0.2604733176110247        1.4772114441787627       9.99996148351909-6.86460096692552E-5i
1.6528486627877335        -0.44414318938649516     9.906658414529984-6.614403184699695E-5i
1.4772106593504082        -0.26047776853607507     9.999961483518877-6.86154063601311E-5i
0.44526159280748034       1.6532991526981338       10.52042157043667-6.440045156544284E-5i
0.5130308300018143        1.4095387073321717       9.999961483519096-6.864468561641367E-5i
0.7239425903514096        1.5512099329309823       10.45904254329532-6.472145961690369E-5i
0.7500003944253057        1.2990378779550218       9.999961483519067-6.864256652894165E-5i
1.7099380786151819        -0.1500161230155815      9.968564501732972-6.61749060041326E-5i
1.5                       0                        9.999961483518893-6.86198094048077E-5i
1.705547120084526         0.14875304654047525      10.03056468825949-6.622593428624999E-5i
1.4772116647960043        0.2604720664305813       9.999961483518922-6.862421235607017E-5i
1.6537031542372378        0.4445554937352897       10.093675062500393-6.614536835678875E-5i
1.409539002854417         0.5130300180614935       9.999961483518955-6.862851521444173E-5i
0.9805706197112867        1.4013331215950204       10.381974223510156-6.511425050776579E-5i
0.9641816539097096        1.149066463814838        9.999961483519044-6.8639764615728E-5i
1.5483970600894963        0.7220049954191233       10.156676646694434-6.603547328539246E-5i
1.2990382497578632        0.7499997504439765       9.999961483518964-6.863261644987365E-5i
1.2124313688824433        1.2125635461788675       10.30977663110221-6.541151889246738E-5i
1.149066861522912         0.964181179939686        9.999961483519007-6.863640589935435E-5i
1.401082926171194         0.9792770104123          10.227076872312336-6.579294839605233E-5i
-0.9965377364775745       -0.5119901962187896      9.999961483518902-6.860975666194914E-5i
-1.2008663059005218       -0.49791577134374276     9.999961483518721-6.861012417288276E-5i
-1.0807815042536755       -0.722434315397021       9.999961483518728-6.860565353529482E-5i
-0.9192376674108731       -0.9192399636727167      9.999961483518726-6.860163578512529E-5i
-0.8319228040530704       -0.666498582512621       9.999961483518947-6.86066238929808E-5i
-0.7189976595822637       -0.8618054782722095      9.999961483518888-6.86026611968117E-5i
-0.7224316832899383       -1.080783263646725       9.999961483518716-6.859824203146304E-5i
-1.2748903559257052       -0.2542726496649377      9.99996148351875-6.861488828226848E-5i
-1.0319755508591002       -0.2986993336941238      9.999961483518957-6.861395967190534E-5i
-1.127842537973944        -0.10191755939636227     9.999961483518922-6.861782321236664E-5i
-1.3                      0                        9.999961483518765-6.861981024793311E-5i
-0.49791297211385643      -1.2008674665427264      9.99996148351871-6.859564702121445E-5i
-0.510399172809512        -0.9339474656970057      9.99996148351893-6.860110240301837E-5i
-0.3309785191594261       -1.0518819784006919      9.999961483518906-6.85986318273556E-5i
-0.25427302997131845      -1.2748902800748012      9.999961483518705-6.859401022131322E-5i
0                         -1.3                     9.999961483518707-6.859344638148554E-5i
-0.10538155234965872      -1.0659210831003534      9.999961483518932-6.859829539659581E-5i
-1.0664996676627645       0.10472812591542703      9.999961483518986-6.862185751124447E-5i
-1.2748902800748012       0.25427302997131845      9.999961483518783-6.86247322087247E-5i
-1.062896677181684        0.3387977857500095       9.999961483518968-6.86264381936204E-5i
-1.2008674665427264       0.49791297211385643      9.999961483518803-6.862949621933665E-5i
0.09303996630995835       -1.109229376845453       9.999961483518902-6.859740414044025E-5i
0.2542726496649377        -1.2748903559257052      9.999961483518716-6.859400998026553E-5i
-1.080783263646725        0.7224316832899383       9.999961483518826-6.863396679772367E-5i
-0.9395818995731745       0.5163281894979804       9.999961483519025-6.862997263733753E-5i
0.49791577134374276       -1.2008663059005218      9.999961483518746-6.859564661755269E-5i
0.30441895262960145       -1.0265167154650547      9.999961483518966-6.859914218880366E-5i
-0.8531621289884193       0.7147457534798374       9.999961483519026-6.863394602901385E-5i
-0.9192399636727167       0.9192376674108731       9.99996148351887-6.863798446265823E-5i
0.5084580515760682        -0.9864169887835698      9.999961483518947-6.86000360372899E-5i
0.722434315397021         -1.0807815042536755      9.999961483518756-6.859824148426249E-5i
-0.722434315397021        1.0807815042536755       9.999961483518938-6.864137810540657E-5i
-0.6753386092608932       0.8357571304674056       9.999961483519108-6.86364580081328E-5i
0.9192399636727167        -0.9192376674108731      9.999961483518785-6.86016351258936E-5i
0.6368844629499694        -0.8395735824827906      9.999961483519014-6.860306620594765E-5i
-0.5126260877670702       0.9848384949288346       9.999961483519133-6.863954956075201E-5i
-0.49791577134374276      1.2008663059005218       9.999961483518993-6.864397298212023E-5i
1.080783263646725         -0.7224316832899383      9.999961483518813-6.860565280035095E-5i
0.8095056677279252        -0.6838518544522508      9.999961483519042-6.860626717935352E-5i
-0.2542726496649377       1.2748903559257052       9.999961483519046-6.864560964227808E-5i
-0.3053391794608046       1.0335196511967168       9.999961483519181-6.86406203341246E-5i
1.2008674665427264        -0.49791297211385643     9.999961483518856-6.861012339449698E-5i
0.9467820609760702        -0.5052548130729154      9.99996148351905-6.86098684602798E-5i
-0.10393032726764048      1.1209472354201107       9.999961483519183-6.864245548751478E-5i
0                         1.3                      9.999961483519076-6.864617327548609E-5i
0.2542774865505297        1.274889391215389        9.999961483519087-6.864560942790617E-5i
0.10931980786731789       1.064593217881322        9.999961483519234-6.864129658299095E-5i
1.0596055206129462        -0.3394856756542466      9.999961483519039-6.861316697908311E-5i
1.2748902800748012        -0.25427302997131845     9.999961483518868-6.861488742411263E-5i
1.3                       0                        9.999961483518888-6.861980940657735E-5i
1.0610299183128573        -0.12096244923492275     9.999961483519087-6.861744413916797E-5i
0.3316141418675122        1.0762888869531588       9.999961483519204-6.864148725201586E-5i
0.4979217638008312        1.2008638212276481       9.999961483519078-6.864397257165114E-5i
1.1000394500664892        0.08964047751280829      9.999961483519073-6.862155927100256E-5i
1.2748898793617054        0.2542750390838555       9.999961483518923-6.862473143982514E-5i
0.7224441620852138        1.0807749222983452       9.999961483519058-6.864137747800833E-5i
0.506476331786558         0.9410708427980866       9.999961483519229-6.863866341018546E-5i
1.2008648344332253        0.4979193201932035       9.999961483518955-6.862949559008306E-5i
1.0224128903168839        0.29599006887008583      9.999961483519128-6.862560926473427E-5i
0.7153895190447785        0.8566739894903068       9.99996148351918-6.863685730387611E-5i
0.9192416125180489        0.9192360185584644       9.999961483519023-6.863798383486845E-5i
0.9847230645340913        0.5050330166939598       9.99996148351912-6.86297308556756E-5i
1.0807768060422045        0.7224413440004743       9.999961483518977-6.863396630748985E-5i
0.8313272910502476        0.6678774959315521       9.99996148351918-6.863302352928367E-5i
-7.620732461602964        -4.602304363092488       8.99627895040139-4.934920228164172E-5i
-8                        -4.411764705882353       9.013176014859361-4.9388939832283546E-5i
-8                        -5                       8.995494974923217-4.9347085819043305E-5i
-7.416745024377485        -5                       8.97798992249259-4.9305039998513246E-5i
-7.565418256572764        -4.115593460750539       9.026043878529828-4.942054323024323E-5i
-8                        -3.823529411764707       9.065438902526715-4.950880013758723E-5i
-7.544156686776493        -3.5350654652972797      9.093796844630269-4.957605749939326E-5i
-8                        -3.2352941176470598      9.150045041715044-4.9690509753112605E-5i
-7.1214990270645675       -4.484163648829542       8.969874393946789-4.9287541877542956E-5i
-6.833490048754966        -5                       8.92467790102006-4.917301102776151E-5i
-7.531696500245358        -2.948064912506719       9.193579152239655-4.978704562366501E-5i
-8                        -2.647058823529412       9.263491937718948-4.990951248386388E-5i
-7.1061210562455335       -3.8367336098545026      9.026084541236548-4.943073229921203E-5i
-7.061702768860148        -3.251179480348358       9.110172466435978-4.963462375185888E-5i
-6.69112067078639         -4.100343731531555       8.95181324066529-4.925633422861503E-5i
-6.511944445455802        -4.532944542536431       8.892022117334504-4.9094857583620526E-5i
-6.250235073132447        -5                       8.8331763223247-4.893321546898464E-5i
-7.529816498502171        -2.3599156274000532      9.320994639179132-5.0023535361436794E-5i
-8                        -2.0588235294117663      9.401326716538424-5.013624965848737E-5i
-7.0616517664886596       -2.662274113826918       9.228808729737834-4.989233533479845E-5i
-6.594984711785284        -2.965286814101514       9.12080412528273-4.9713987640832124E-5i
-6.53474522474536         -3.5563403811929684      9.002072858568297-4.941151410201381E-5i
-6.2065760345371705       -4.054911385990191       8.880076586813502-4.909114463016024E-5i
-5.9415981204895445       -4.526088544843773       8.782883366504016-4.880574280979715E-5i
-5.66698009750993         -5                       8.699160649082968-4.855284377023952E-5i
-6.162823480649353        -3.1375868290628177      9.02572519874981-4.954557058701953E-5i
-7.527632924686014        -1.7715005640288102      9.470610900391756-5.025264232438647E-5i
-8                        -1.4705882352941193      9.55847275143203-5.0340142298163855E-5i
-7.05808507208422         -2.071764978371075       9.373038856967087-5.0161031466779624E-5i
-6.593625047454768        -2.3774328702337884      9.259985429276002-5.003416380514722E-5i
-6.132714667771655        -2.6478702241867715      9.137601510115616-4.9864910991569794E-5i
-5.919887850353653        -3.548340817461842       8.900222034918835-4.9215072718382045E-5i
-5.6457996396591925       -4.04055881788079        8.759093270565197-4.878852432726915E-5i
-5.365548983025896        -4.52174434590865        8.629094542275181-4.8360615666771915E-5i
-5.0837251218874115       -5                       8.515902181463028-4.7979954846810176E-5i
-5.654115354039           -3.0010099574222253      8.96686645148222-4.952638040788828E-5i
-7.525259778534514        -1.181964895325242       9.637358642860887-5.044367862969476E-5i
-8                        -0.8823529411764723      9.729518380651216-5.0493715202594826E-5i
-7.524401846229602        -0.5911716071396363      9.815796769144276-5.057032101190841E-5i
-8                        -0.29411764705882604     9.908919963786413-5.057629070241127E-5i
-7.052870426037196        -1.4799577873075023      9.537672504149286-5.0404639420421715E-5i
-6.583209123265152        -1.7800380323839995      9.424754819664281-5.035187798886197E-5i
-6.115778486355029        -2.0771657618182426      9.295359505834815-5.025709950843666E-5i
-5.660457622513197        -2.3815427479266016      9.142943521028668-5.007233552015769E-5i
-5.249241746201824        -2.634418878939028       8.988793996570204-4.981560163950185E-5i
-5.365235303152567        -3.536942872182474       8.773577944871652-4.894796502605615E-5i
-5.070820533650307        -4.040119803907917       8.589936699080008-4.831906120376879E-5i
-4.783374031556035        -4.522508194210061       8.421132642652326-4.769245673486267E-5i
-4.5004701462648935       -5                       8.273331567796772-4.713591245981232E-5i
-5.058354760236466        -3.078310863038124       8.80747762188539-4.925193283807233E-5i
-7.5237897342628175       -0.0017890020254301051   9.999453046346465-5.06149498792914E-5i
-8                        0.2941176470588207       10.091106673896304-5.0576773852012044E-5i
-7.049449847006276        -0.888524040094084       9.716681684732807-5.0588784841648815E-5i
-7.048958450462714        -0.2986863831434661      9.903815025522624-5.068767947002623E-5i
-6.576562327028852        -1.187257818634553       9.606503227933414-5.061589738495379E-5i
-6.102683255906965        -1.4872386672251616      9.480285981187878-5.062842686504457E-5i
-5.622575150852899        -1.7905594487523138      9.331309829007042-5.059085682335578E-5i
-5.10396037805803         -2.1090615675573634      9.142576249044238-5.044330586268966E-5i
-7.599916735850357        4.619435849778325        11.00527025133625-4.9350596536032736E-5i
-8                        5                        11.004539497709082-4.93520839594798E-5i
-8                        4.411764705882343        10.98685470478996-4.939388620098235E-5i
-7.416745024377485        5.000000000000001        11.022048685064123-4.93100849325496E-5i
-4.769181943132963        -2.601975450137193       8.890227386799053-4.981483373733487E-5i
-4.773639494508092        -3.5635460709277975      8.586748859726095-4.848585312728586E-5i
-4.481616386105926        -4.0449323110483         8.36173043498883-4.760671414573548E-5i
-4.196568624151487        -4.526294135063423       8.146268572932032-4.670355313540595E-5i
-3.9172151706423755       -5                       7.956482162630896-4.5903821875638134E-5i
-4.478158321240739        -3.0942284586651674      8.627487669398343-4.892540155224399E-5i
-0.39743172113943126      -4.525851889888176       1.480722225658604-9.218879506444489E-6i
-0.4210293658738242       -4.589379190912233       1.6140045711095836-1.0027709253856649E-5i
-0.34050839689200857      -4.580108560023401       1.0752384724372206-6.683396764328697E-6i
-7.523544977774634        0.586635277415561        10.182837600450698-5.057205649330726E-5i
-8                        0.8823529411764666       10.270508615894187-5.049514439249867E-5i
-7.52314697820783         1.174371679404781        10.360467823494206-5.044785017469248E-5i
-8                        1.4705882352941124       10.44155502219545-5.034245856244909E-5i
-7.048892691146122        0.29020579703422006      10.093486879256119-5.068892580565114E-5i
-4.517991968103481        -2.143013116913909       9.016571301862841-5.058896496320681E-5i
-6.573803807467335        -0.5956252590785192      9.799710925769707-5.079069971232637E-5i
-6.575842000191436        -0.007814376981234277    9.997372841094105-5.085157696935741E-5i
-6.098581115590634        -0.8941831152220756      9.681811359872292-5.091120183843079E-5i
-5.619508675378825        -1.19451439385014        9.544817695404054-5.10271964748338E-5i
-5.133081710743618        -1.4938813153547663      9.383665711673016-5.110412028506362E-5i
-4.717283250982522        -1.7244753483741593      9.232891318913142-5.112426554407586E-5i
-7.52216638991525         1.7609265849893967       10.526683587185419-5.025953224446465E-5i
-8                        2.0588235294117583       10.598701858363691-5.013936030485657E-5i
-7.522289466830599        2.3438885043754385       10.675454618373898-5.0033595851632554E-5i
-8                        2.647058823529404        10.736537252132885-4.991329963105932E-5i
-7.524175262313118        2.9253313031419625       10.802271782678341-4.979979749228455E-5i
-8                        3.235294117647051        10.84998494835766-4.969483255806159E-5i
-7.524747181762573        3.493132167071649        10.900859450082542-4.959297639032798E-5i
-8                        3.8235294117646963       10.934595713165683-4.951348223088765E-5i
-7.470925175085259        4.1107577861998745       10.97800985628936-4.941687958039797E-5i
-7.1119134797890435       4.574656756809408        11.035598439263888-4.92786998179199E-5i
-6.833490048754966        5                        11.07535497935036-4.9178332100039054E-5i
-7.089769568319575        3.6695379183367396       10.953609162342314-4.9486254650625084E-5i
-0.4919024560465333       -4.523351615256699       2.065597979669063-1.2848374746382554E-5i
-4.196509517668655        -2.6190768229762553      8.726415148109497-4.9716408241283E-5i
-3.609524940288231        -4.537184093579059       7.78716000959709-4.52528202907539E-5i
-3.3339601950198574       -5                       7.542809810480061-4.4110213259214436E-5i
-4.178811639786204        -3.5650551153085512      8.351872655968739-4.783383538222897E-5i
-3.8862217606106024       -4.051676690836474       8.062363483081262-4.654775701445521E-5i
-3.882334612000148        -3.066107144762762       8.415913400796851-4.853533104241774E-5i
-0.42045299332652997      -4.453438544998425       1.7640151198492753-1.1007514873337067E-5i
-0.33882452556810655      -4.491620843868633       1.0542913056192715-6.576832279623959E-6i
-0.5207291496133101       -4.6611301322479886      2.125846432815201-1.3178306358469793E-5i
-0.37489059220207743      -4.679845001284605       1.4289252020898946-8.861539246952071E-6i
-0.25                     -4.55                    0
-0.28065530845633757      -4.63621311193536        0.8485712333428934-5.26528775736994E-6i
-0.6169754330856044       -4.824503614253785       2.501511713758779-1.5462583632826562E-5i
-0.7133423146011957       -5                       2.8373355169455263-1.750943418941805E-5i
-0.5039813647366937       -5                       2.09276503453871-1.2939283280140137E-5i
-7.04845657558771         0.878410058255231        10.280214265235257-5.0592955974385454E-5i
-7.047093377526756        1.465794875605308        10.458431610513847-5.041314008844928E-5i
-6.576890609436309        0.5805694817364583       10.195227735328617-5.07936696994599E-5i
-4.012029311516954        -2.1326521659703386      8.908279761843934-5.084110766032219E-5i
-4.308987407261761        -1.6708373464681445      9.193048696932548-5.154634014489447E-5i
-6.103135934727423        -0.30766247707020494     9.889673320820185-5.105970935926467E-5i
-6.107314574972256        0.28021081304370093      10.100464414444689-5.1061448714679485E-5i
-5.627806475177192        -0.6096206071410483      9.76550468156873-5.130564106573788E-5i
-5.1418344647627645       -0.9200381585864387      9.616852818741881-5.15704169951996E-5i
-4.5933283444266735       -1.224638975008183       9.4380415547528-5.188104494132285E-5i
-7.043162229511936        2.0490357201105445       10.621788713467906-5.017534618260673E-5i
-7.044504267593729        2.621376028539286        10.763128008921937-4.991464792493006E-5i
-7.053962791048367        3.1861528639273726       10.87877907386081-4.9665114480826484E-5i
-6.842270181664241        4.075856154084609        11.027059020675777-4.931058431970167E-5i
-6.557647199446942        4.529421711785204        11.100737398429105-4.9118812584184394E-5i
-6.250235073132447        5                        11.166865119060887-4.893886056882119E-5i
-6.5598050046781635       3.5273034034131276       10.989880337688264-4.9435675094961985E-5i
-0.922843730854476        -5                       3.5389505196561886-2.178269061395496E-5i
-0.8270034828374          -4.81451508118854        3.257581313429133-2.008971407297708E-5i
-0.5300078772857131       -4.411104307288819       2.471304471054731-1.5412005013598705E-5i
-0.6343184427820127       -4.512999548218864       2.7572310274416227-1.7121916778204934E-5i
-0.7187128223745244       -4.650525162741851       2.9569091277431494-1.8293977748322464E-5i
-1.029791665230372        -4.804884920066729       3.903292250510873-2.4003654965547486E-5i
-1.1381486889215449       -5                       4.177332973908142-2.5629231766671662E-5i
-1.2404615059051167       -4.802421164556148       4.484213529838491-2.7480497396857878E-5i
-1.36245346869066         -5                       4.753903522138118-2.9054723925690003E-5i
-1.6025204387176206       -5                       5.284538785350451-3.215094946785966E-5i
-1.4849845240409099       -4.781052312523231       5.0686818300235315-3.092537486352047E-5i
-3.598053992261687        -2.5096919937590614      8.59210937043934-4.9945979141434094E-5i
-3.6055079602505447       -2.00211870752375        8.885256525846119-5.147805262932226E-5i
-3.037646267374279        -4.569622152976563       7.326832879936602-4.317237760414165E-5i
-2.7716354828648626       -5                       7.019842238243958-4.1606792406141044E-5i
-3.285275391557954        -4.075117726562312       7.665619104511705-4.4944709175315764E-5i
-3.565481179415126        -3.5613967790462144      8.045856739121474-4.686037138377336E-5i
-3.2769930216284835       -3.047193698821319       8.152151694519516-4.795959079403606E-5i
-0.3562502282711212       -4.401484952243039       1.5140245535824837-9.478820930127153E-6i
-0.4492508200177754       -4.354449629546279       2.240025901902552-1.4015926847542772E-5i
-0.38011417603405734      -4.312415407077749       2.0747010812874693-1.3019893248201014E-5i
-0.25                     -4.45                    0
-0.4118162126445165       -4.824747388539153       1.7225348979438702-1.0663129534724651E-5i
-0.2563177272944251       -4.732161239872935       1.0368694016764266-6.4252890053673395E-6i
-0.18157941589934193      -4.641112985969388       0.5076255647058815-3.1468086211236087E-6i
-0.13528973144279788      -4.55                    0
-0.05382786485298841      -4.639072420824315       0.3549558752266237-2.1991187569744886E-6i
1.1102230246251565E-16    -4.55                    0
-0.2946204148721918       -5                       1.4283316675155247-8.841074135952726E-6i
-6.575853569618023        1.1690885683518002       10.387759667133237-5.062502813932437E-5i
-6.572671775322056        1.7610768007111217       10.570415469359164-5.03662132873268E-5i
-6.109495129618288        0.8688348244723825       10.308871828504245-5.0916913088231806E-5i
-3.852203509223308        -1.6349605876073556      9.137607930513918-5.214231778532786E-5i
-4.129296047999638        -1.2949802358146598      9.352860523473568-5.2400814715199885E-5i
-3.3734737488711004       -1.6208075425588209      9.070889463278895-5.29364986144317E-5i
-5.63759080867197         -0.021141134613367942    9.991861355706197-5.140264688245855E-5i
-5.644442694082908        0.565385190437596        10.217022645671149-5.1308743344154226E-5i
-5.1662385306012375       -0.3203362587508303      9.866470600819612-5.1816383200650424E-5i
-4.69328098306708         -0.6086197077148645      9.724780045702984-5.2293972809399214E-5i
-4.197232690914261        -0.8385979696420591      9.586938712853664-5.290505481070438E-5i
-6.550936314279343        2.3407612223913743       10.73444288382945-5.0059806343577706E-5i
-6.58195618690646         2.8863715052238494       10.863526392934743-4.975920385848885E-5i
-6.1545025500734125       3.1504206619828183       10.978376256628016-4.954074188836113E-5i
-6.26356066266645         4.043459347963295        11.10827806899853-4.912562146531135E-5i
-5.968923136949323        4.52002152947451         11.21059789905459-4.8829926325142686E-5i
-5.666980097509931        5                        11.300883934356747-4.855900797707854E-5i
-5.964987597915899        3.576094261073346        11.095876346099729-4.922217004519936E-5i
-0.5259087713011241       -4.299069539522703       2.7660235957314434-1.730612063429532E-5i
-0.9221043293808321       -4.6200169847396255      3.6830560653717863-2.27290193207216E-5i
-0.6582137802403031       -4.323316966189945       3.205724177616836-1.9989738383800213E-5i
-0.7911460965479868       -4.469985615802304       3.4129448657283628-2.1159820174006705E-5i
-1.1255758931699886       -4.593038003889978       4.296522100424688-2.6432111077948743E-5i
-1.3336136520949067       -4.610182110500211       4.8052149200068035-2.9441102251294307E-5i
-2.525951002010783        -4.618130698649586       6.786926432316456-4.048948486569603E-5i
-2.2840743060005746       -5                       6.429562679417054-3.8546613611522494E-5i
-1.9016150113691275       -5                       5.843596925483419-3.533302814494666E-5i
-2.0934301254067615       -4.660720782029804       6.202699570817422-3.7377751921017995E-5i
-1.7477235927950332       -4.728596224179757       5.610339320179481-3.4056523204360506E-5i
-1.5366164081444011       -4.509452204631911       5.307530045517904-3.2417173222153064E-5i