% Model:              VLR_3_01V03.mph
% Version:            COMSOL 5.5.0.292
% Date:               Jun 21 2020, 18:47
% Dimension:          2
% Nodes:              1156
% Expressions:        1
% Description:        Electric potential
% Length unit:        cm
% x                       y                        V2 (V)
-1.4059463872219098       -0.9813797318893042      9.663437349473865-6.0338705859981885E-5i
-1.149063052439335        -0.9641857194123948      9.999434508085965-6.390667603743341E-5i
-1.2990322911339665       -0.750010070993209       9.999434508085956-6.391367073232432E-5i
-1.5540042043557092       -0.722034845019996       9.777364441179614-6.0786392207027533E-5i
-1.409536313227687        -0.5130374076931423      9.999434508085933-6.392110610500731E-5i
-1.2205243408220772       -1.2117890609520467      9.5162864284084-5.961879734081416E-5i
-0.9642335055494975       -1.1490229531109146      9.999434508085969-6.390032203134438E-5i
-1.001675119152985        -1.4061656076255087      9.329569117908036-5.862288777160931E-5i
-0.7500124149660692       -1.2990309378135554      9.999434508085974-6.389485024663205E-5i
-0.750736199032324        -1.5586110631617294      9.112605175771682-5.743292694263658E-5i
-0.5130398575996976       -1.4095354215180553      9.999434508085967-6.389056459308704E-5i
-1.652882734670768        -0.44229144020041306     9.873701894192452-6.108584978640193E-5i
-1.4772109886979958       -0.2604759007468612      9.99943450808591-6.392881718479007E-5i
-1.7072288493965275       -0.15000960532779778     9.957808415056236-6.11833840961062E-5i
-1.5                      0                        9.999434508085908-6.393666334727448E-5i
-1.7054959875627569       0.15051427549642327      10.04094325438646-6.121026709030675E-5i
-1.4772106593504082       0.26047776853607507      9.99943450808594-6.394450956044584E-5i
-0.4712185464905898       -1.6644929389818814      8.895954280328063-5.6229198938156394E-5i
-0.26047776853607507      -1.4772106593504082      9.999434508085962-6.388779729056014E-5i
-1.6526797183555855       0.44479235953652957      10.126156245733918-6.109918457345734E-5i
-1.4095354215180553       0.5130398575996976       9.999434508085937-6.395222065720689E-5i
-0.16706849225139733      -1.7244290578951678      8.722703168655997-5.523433610188866E-5i
0                         -1.5                     9.999434508085953-6.388683060750298E-5i
-1.5485083850690595       0.7225601473413086       10.217881526915336-6.0881702804917624E-5i
-1.2990309378135554       0.7500124149660692       9.999434508085939-6.395965601199616E-5i
-1.3984996880717646       0.9799687634631224       10.326694833566862-6.048617064505345E-5i
-1.1490229531109146       0.9642335055494975       9.999434508085955-6.396665220923974E-5i
0.13842272144382808       -1.7207721640461666      8.747114577559671-5.540750440018679E-5i
0.2604759007468612        -1.4772109886979958      9.99943450808595-6.388779693504608E-5i
-1.207848781924884        1.2089622511194882       10.463770608704303-5.9857393424073396E-5i
-0.9641857194123948       1.149063052439335        9.99943450808596-6.397300599641547E-5i
0.43915387679224327       -1.654917529834579       8.958930823459761-5.6687927333854E-5i
0.5130374076931423        -1.409536313227687       9.999434508085928-6.389056399318073E-5i
-0.9836844118469209       1.4016634991216563       10.638169453365807-5.8954441653026784E-5i
-0.750010070993209        1.2990322911339665       9.999434508085965-6.397847637783098E-5i
0.7214792589985207        -1.547279365387828       9.180255113381195-5.795132658437114E-5i
0.750010070993209         -1.2990322911339665      9.999434508085898-6.389484955987226E-5i
-0.7263394076186043       1.5552214443722479       10.852023733170112-5.778178398297009E-5i
-0.5130374076931423       1.409536313227687        9.999434508085987-6.398276203082028E-5i
0.9785263024164088        -1.398456435440125       9.37486322513783-5.9002787692157345E-5i
0.9641857194123948        -1.149063052439335       9.999434508085871-6.390031989439711E-5i
-0.4433354233075031       1.659137388183728        11.061968517191838-5.661236646525143E-5i
-0.2604759007468612       1.4772109886979958       9.999434508086027-6.398552909016097E-5i
1.2065196455627076        -1.2089205673343237      9.536619763292139-5.9815483804416494E-5i
1.1490229531109146        -0.9642335055494975      9.99943450808585-6.390667364258816E-5i
-0.15194000925542003      1.7071249677982574       11.182042670111437-5.59554470604015E-5i
0                         1.5                      9.99943450808606-6.39864956441748E-5i
1.400126852846976         -0.9836763712696163      9.666257448281776-6.038268178837303E-5i
1.2990309378135554        -0.7500124149660692      9.999434508085837-6.391366982144912E-5i
0.2604733176110247        1.4772114441787627       9.999434508086079-6.398552907178612E-5i
0.15018945803725137       1.7177638434926634       11.237432157304381-5.5581291121875415E-5i
1.5503740482788273        -0.725279993048226       9.777659318966919-6.080724994039287E-5i
1.4095354215180553        -0.5130398575996976      9.999434508085855-6.392110518172893E-5i
0.5130308300018143        1.4095387073321717       9.999434508086084-6.398276181464132E-5i
0.4560529429712923        1.669550546059036        11.117180475942014-5.6222111159410274E-5i
1.6534433353935112        -0.4436244802929349      9.872860773962119-6.107398981764778E-5i
1.4772106593504082        -0.26047776853607507     9.99943450808587-6.392881630615727E-5i
1.7036006801727959        -0.14910042932821638     9.958623249333927-6.122760778957624E-5i
1.5                       0                        9.999434508085866-6.393666255967594E-5i
0.7500003944253057        1.2990378779550218       9.999434508086074-6.397847620861114E-5i
0.7417756358358775        1.5536952399041797       10.860671902404254-5.770009298750791E-5i
1.7037291801029393        0.14851675338455547      10.040081349800793-6.123365604079757E-5i
1.4772116647960043        0.2604720664305813       9.999434508085876-6.394450865335324E-5i
1.653421472782773         0.4414811771615677       10.125061410748033-6.110294156496537E-5i
1.409539002854417         0.5130300180614935       9.999434508085901-6.395221968277407E-5i
0.9641816539097096        1.149066463814838        9.999434508086043-6.397300567560374E-5i
0.9939604273711035        1.3971653801522927       10.63760618000754-5.8940577854517E-5i
1.217413382610106         1.2074519587353862       10.471470994985479-5.977255397945311E-5i
1.149066861522912         0.964181179939686        9.999434508086003-6.396664993879269E-5i
1.405751642902688         0.9795546262158545       10.33312709157741-6.0405342587656575E-5i
1.2990382497578632        0.7499997504439765       9.999434508085946-6.39596550084747E-5i
1.5524363465489834        0.7203059176734528       10.21913430731985-6.085007899004398E-5i
-0.9965377364775745       -0.5119901962187896      9.99943450808611-6.391849805663922E-5i
-1.2008663059005218       -0.49791577134374276     9.99943450808594-6.391930723511655E-5i
-1.0807815042536755       -0.722434315397021       9.999434508085956-6.391115066760996E-5i
-0.9192376674108731       -0.9192399636727167      9.999434508085972-6.390365672188231E-5i
-0.8319228040530704       -0.666498582512621       9.999434508086166-6.391267672076056E-5i
-0.7189976595822637       -0.8618054782722095      9.999434508086127-6.390530313862402E-5i
-0.7224316832899383       -1.080783263646725       9.999434508085976-6.389713844696085E-5i
-1.2748903559257052       -0.2542726496649377      9.999434508085914-6.392787462982688E-5i
-1.0319755508591002       -0.2986993336941238      9.99943450808614-6.392611244696003E-5i
-1.127842537973944        -0.10191755939636227     9.999434508086084-6.393309405604893E-5i
-1.3                      0                        9.999434508085912-6.39366633472232E-5i
-0.49791297211385643      -1.2008674665427264      9.999434508085967-6.389198217488902E-5i
-0.510399172809512        -0.9339474656970057      9.999434508086166-6.390221532377479E-5i
-0.3309785191594261       -1.0518819784006919      9.999434508086136-6.389744627940964E-5i
-0.25427302997131845      -1.2748902800748012      9.99943450808596-6.388862357460337E-5i
0                         -1.3                     9.999434508085951-6.388744292409606E-5i
-0.10538155234965872      -1.0659210831003534      9.999434508086159-6.389670429314229E-5i
-1.0664996676627645       0.10472812591542703      9.99943450808614-6.394034975883493E-5i
-1.2748902800748012       0.25427302997131845      9.99943450808593-6.394545207690236E-5i
-1.062896677181684        0.3387977857500095       9.9994345080861-6.394860311277033E-5i
-1.2008674665427264       0.49791297211385643      9.999434508085937-6.395401935674704E-5i
0.09303996630995835       -1.109229376845453       9.999434508086116-6.389501318745899E-5i
0.2542726496649377        -1.2748903559257052      9.999434508085939-6.388862335056306E-5i
-1.080783263646725        0.7224316832899383       9.999434508085944-6.39621759189367E-5i
-0.9395818995731745       0.5163281894979804       9.999434508086141-6.395506504618902E-5i
-0.8531621289884193       0.7147457534798374       9.99943450808612-6.396236560071503E-5i
-0.9192399636727167       0.9192376674108731       9.99943450808596-6.396966985511355E-5i
0.49791577134374276       -1.2008663059005218      9.999434508085924-6.389198173727392E-5i
0.30441895262960145       -1.0265167154650547      9.999434508086148-6.389838941294562E-5i
-0.722434315397021        1.0807815042536755       9.999434508085958-6.397618809758423E-5i
-0.6753386092608932       0.8357571304674056       9.99943450808616-6.396714280285054E-5i
0.5084580515760682        -0.9864169887835698      9.999434508086102-6.390022588537209E-5i
0.722434315397021         -1.0807815042536755      9.999434508085896-6.389713782601746E-5i
-0.5126260877670702       0.9848384949288346       9.999434508086152-6.397303265648568E-5i
-0.49791577134374276      1.2008663059005218       9.999434508085974-6.398134427801386E-5i
0.9192399636727167        -0.9192376674108731      9.999434508085859-6.390365601701576E-5i
0.6368844629499694        -0.8395735824827906      9.999434508086138-6.390597144065644E-5i
-0.2542726496649377       1.2748903559257052       9.999434508086022-6.398470269816229E-5i
-0.3053391794608046       1.0335196511967168       9.999434508086198-6.397520487141928E-5i
1.080783263646725         -0.7224316832899383      9.999434508085837-6.391114992581172E-5i
0.8095056677279252        -0.6838518544522508      9.999434508086113-6.391200651547877E-5i
-0.10393032726764048      1.1209472354201107       9.999434508086189-6.397876570751149E-5i
0                         1.3                      9.999434508086054-6.398588313912152E-5i
1.2008674665427264        -0.49791297211385643     9.999434508085848-6.391930648604283E-5i
0.9467820609760702        -0.5052548130729154      9.999434508086084-6.39186673970994E-5i
1.0596055206129462        -0.3394856756542466      9.999434508086052-6.392469516658152E-5i
1.2748902800748012        -0.25427302997131845     9.99943450808586-6.392787379133548E-5i
0.2542774865505297        1.274889391215389        9.999434508086075-6.398470257352941E-5i
0.10931980786731789       1.064593217881322        9.999434508086237-6.397656854025261E-5i
1.3                       0                        9.999434508085857-6.393666256280688E-5i
1.0610299183128573        -0.12096244923492275     9.99943450808608-6.393240262175206E-5i
0.3316141418675122        1.0762888869531588       9.999434508086203-6.397682018200448E-5i
0.4979217638008312        1.2008638212276481       9.999434508086075-6.398134387516308E-5i
0.7224441620852138        1.0807749222983452       9.999434508086063-6.397618739170203E-5i
0.506476331786558         0.9410708427980866       9.999434508086233-6.397138642781306E-5i
0.7153895190447785        0.8566739894903068       9.999434508086178-6.396784019587805E-5i
0.9192416125180489        0.9192360185584644       9.999434508086024-6.396966926975207E-5i
1.0807768060422045        0.7224413440004743       9.999434508085969-6.396217568356627E-5i
0.8313272910502476        0.6678774959315521       9.99943450808617-6.39607005537766E-5i
0.9847230645340913        0.5050330166939598       9.999434508086097-6.39545967959718E-5i
1.2008648344332253        0.4979193201932035       9.999434508085903-6.395401891971781E-5i
1.1000394500664892        0.08964047751280829      9.999434508086052-6.393980925829542E-5i
1.2748898793617054        0.2542750390838555       9.999434508085875-6.394545141793015E-5i
1.0224128903168839        0.29599006887008583      9.99943450808611-6.39471258018551E-5i
-7.625854657873597        -4.603315491951089       8.920046779965405-4.3611834709586775E-5i
-8                        -4.411764705882353       8.937690737339986-4.3647027040837055E-5i
-8                        -5                       8.919065930666173-4.360963847640881E-5i
-7.424910408262717        -5                       8.901160006485199-4.357317416879707E-5i
-7.569000143109421        -4.118581057344222       8.95108759127462-4.367491743685982E-5i
-8                        -3.823529411764707       8.992863596572297-4.375433645106507E-5i
-7.1353627379958455       -4.48623169652887        8.893224444431624-4.35587324598675E-5i
-6.849820816525474        -5                       8.846776230468917-4.3459081940351096E-5i
-7.108866283656047        -3.847417707145536       8.949827444637398-4.368123863248432E-5i
-6.701052440992873        -4.106509424138128       8.873346972316824-4.352872138685336E-5i
-7.5429201195567535       -3.5398305944512063      9.021954759163137-4.381299850982783E-5i
-8                        -3.2352941176470598      9.082539015336076-4.3917681329117175E-5i
-6.529813051203664        -4.5332733729418395      8.813211999159845-4.339104628898484E-5i
-6.274731224788231        -5                       8.753963465441988-4.3253367038994264E-5i
-6.225725362825035        -4.06867596516           8.79887430033037-4.338231535797521E-5i
-7.524183243174064        -2.9540878163791366      9.127069982296653-4.4002045711971395E-5i
-8                        -2.647058823529412       9.203419090688856-4.411561436298239E-5i
-6.53494375842273         -3.5729763959851253      8.921672450205783-4.365746362631464E-5i
-7.055471047400985        -3.260073456426577       9.03725185615185-4.386201855666571E-5i
-5.972035245454664        -4.531531779163326       8.703181769934636-4.314440485975155E-5i
-5.699641633050989        -5                       8.619316331672286-4.2930824330146193E-5i
-5.678260735664247        -4.063947377776505       8.675006155634248-4.311735187852268E-5i
-5.937839295333494        -3.6039772040538196      8.808842047278432-4.3461001279779E-5i
-7.522585747406066        -2.3600817328027492      9.264374480891695-4.421870566041005E-5i
-8                        -2.0588235294117663      9.351139429491102-4.432177802684832E-5i
-6.130852199701442        -3.182670437868081       8.931352071164529-4.374726061800349E-5i
-7.043399903317458        -2.6638071491020012      9.16357080434969-4.40971269608323E-5i
-6.5559484409423625       -2.9468744685943338      9.048502796163762-4.3939168483302444E-5i
-5.406309019256829        -4.529558260257419       8.549631941478602-4.276916957129999E-5i
-5.124552041313747        -5                       8.437882052866264-4.2453228436252676E-5i
-5.115984084003421        -4.06060166039839        8.50552077228843-4.271736663551502E-5i
-5.389284056305223        -3.5992948083362593      8.673273901328548-4.320556035676522E-5i
-5.667969659082294        -3.1362982391969463      8.84910928882032-4.3655785587836856E-5i
-7.5229798687369325       -1.7687655293993167      9.426081973332414-4.4428873950641574E-5i
-8                        -1.4705882352941193      9.520488401925896-4.4508272314682246E-5i
-7.045167997489926        -2.067740465613544       9.3198805433289-4.4345001330396286E-5i
-6.008329739867662        -2.64672806290359        9.044572627578695-4.405797055877193E-5i
-6.562693996943893        -2.3549913092806274      9.199792226574383-4.423607607949704E-5i
-4.835495010139418        -4.52760905971779        8.346297046196073-4.2219356278828085E-5i
-4.548811659825666        -4.055399559385251       8.285518636072728-4.2137047053656795E-5i
-4.549462449576504        -5                       8.20299246492407-4.176656046029468E-5i
-4.830948669384619        -3.5922833525775495      8.494363248234672-4.282849977997778E-5i
-5.104294244484724        -3.138820779113087       8.702403297272864-4.344462129046571E-5i
-5.3510813073353365       -2.7171450415892693      8.893523626202212-4.39301438174448E-5i
-4.267012020026996        -3.5820025447736508      8.26559857017457-4.228131040167718E-5i
-7.523152004228676        -1.1791285577107078      9.606424729063567-4.460403960146073E-5i
-8                        -0.8823529411764723      9.705651671349479-4.464949805043716E-5i
-7.045853874394011        -1.4753362079583494      9.49803498094861-4.456866887349624E-5i
-6.5645530404054355       -1.7583013522484758      9.378762566959056-4.452788187267091E-5i
-5.542183186390657        -2.215618435963143       9.099054382630628-4.439087596707171E-5i
-6.076331722789085        -2.0261641378293938      9.243013455224508-4.445957428457566E-5i
-4.260104510070431        -4.526850354334253       8.084504931252726-4.142884675026282E-5i
-3.9757647572467456       -4.0550464668903725      8.00349337020532-4.129552243730767E-5i
-3.701710692799777        -3.587043962803005       7.972653225829171-4.1461626210495034E-5i
-3.9743728578392616       -5                       7.9062618701814245-4.079904929588781E-5i
-4.554643675121397        -3.120988092940557       8.525956213175041-4.3165069579477424E-5i
-4.830235340899057        -2.6676309518198424      8.774557910574798-4.389031774858939E-5i
-5.099378324494919        -2.343707404893292       8.963391817264833-4.430227180235549E-5i
-3.9960662278728845       -3.111071771239813       8.298369002942175-4.273335261011811E-5i
-3.431596650565515        -3.113653703457757       8.00512231132594-4.204298830442057E-5i
-7.522438567264249        -0.5891933555353893      9.799789148521073-4.472056568868982E-5i
-8                        -0.29411764705882604     9.90043480506275-4.4725857941360244E-5i
-7.045093743687699        -0.8836167964627399      9.69247291692148-4.47383740884858E-5i
-6.567275243711601        -1.1742109534798988      9.573978257158897-4.476658830611028E-5i
-6.089117349696007        -1.4511411790702393      9.442237981437943-4.4789718934351424E-5i
-5.115856882618898        -1.9358657258817025      9.125969022571084-4.475042293465511E-5i
-5.612269969856568        -1.7022005277201089      9.296786136949947-4.4792393884211496E-5i
-7.523181370666639        -5.954965657249031E-4    9.99923705461306-4.4761744514802545E-5i
-8                        0.2941176470588207       10.098444723226706-4.472671577154282E-5i
-3.68463570339106         -4.529151605459992       7.755946417615875-4.031760352439751E-5i
-3.4078900654617423       -4.061353264794096       7.652755324621661-4.010727800026293E-5i
-3.139985282484718        -3.6006688787625314      7.604397341124396-4.025537518046938E-5i
-2.8733406015051295       -3.126433947549772       7.632904657951323-4.09471498601863E-5i
-3.399283266102019        -5                       7.53812580011024-3.946260803007771E-5i
-4.295952171852181        -2.6394031846722936      8.615098110299753-4.379989534175669E-5i
-4.642998104665009        -2.1623303649753804      8.92705470679771-4.459566408988803E-5i
-3.162615012181813        -2.6298632365144763      8.122909395582269-4.321090551956746E-5i
-2.577678376135284        -2.6056009664109387      7.784867084226947-4.2600673886280706E-5i
-3.7254821568714394       -2.6233391387916107      8.3993467439672-4.361292812705847E-5i
-4.775803129897877        -1.690799838958548       9.168354197116258-4.519037929358462E-5i
-7.046577197981646        -0.2949510076246939      9.895882484588364-4.482932188959807E-5i
-6.570146079560243        -0.5874985244325849      9.783291949938324-4.492573486872288E-5i
-6.092720835026227        -0.8751878932043171      9.656950467115559-4.504153840740493E-5i
-5.614421049037429        -1.1565069151268272      9.511817447406715-4.5158521052204974E-5i
-5.131208580275263        -1.427679389242404       9.343163751634373-4.525155112826676E-5i
-7.523230915812083        0.5875530621646505       10.198533785848086-4.47224376656953E-5i
-8                        0.8823529411764666       10.293227622785121-4.4652034884210326E-5i
-7.04669927962572         0.29278907044272795      10.102239465559778-4.4830370187126026E-5i
-7.523094081167642        1.176192965356296        10.391520286688246-4.460817102161946E-5i
-8                        1.4705882352941124       10.478390644433116-4.45123811881174E-5i
-0.46909012631822855      -3.143423897029411       2.7911998147927473-1.611799311214345E-5i
-0.451111659069678        -3.037725578345175       2.5922490995002985-1.5123820752581281E-5i
-0.563678135976185        -3.079991063373227       3.33163896517484-1.9339646049310643E-5i
-0.3669708895499836       -3.0982015188371332      1.941665412159095-1.1243815902582481E-5i
-0.41890481945458313      -2.9515386766931675      2.45146438884832-1.4453481099943733E-5i
-0.5394122168779529       -2.954170784578311       3.3278264466978316-1.954388097809146E-5i
-0.6796747238155398       -2.997191005805676       4.002881456438462-2.3340479179610843E-5i
-0.6820817248794698       -2.8619848005576802      4.275262847575853-2.5181549303284863E-5i
-0.8373933457997895       -2.9213762580857834      4.753328521211774-2.7738911288698962E-5i
-0.7929395962986538       -3.062907791281529       4.40028932848951-2.5472979230172734E-5i
-0.6856392544848608       -3.1359381590214697      3.919256529741698-2.262178742968031E-5i
-0.5755040841864877       -3.1981904117730457      3.4293983299149873-1.9725603290150748E-5i
-3.1159477001642353       -4.535291140496549       7.355089501291879-3.880531269958763E-5i
-2.8468799573024737       -4.081208151531638       7.220364379838432-3.8447586865980555E-5i
-2.3428168172367334       -3.1808589934747196      7.147864411917721-3.911736303385469E-5i
-2.0195764907532014       -2.793364781545209       7.138050530169147-3.996202069033469E-5i
-2.5855686955314394       -3.6279280802700336      7.140298673722826-3.847866560849378E-5i
-0.3919224350748822       -3.1918022782316737      2.4189358614480594-1.3895366269661205E-5i
-0.29667419603434375      -3.1791561751520114      1.7853474063101942-1.0231809621996506E-5i
-0.46644853058530394      -3.255505542063905       2.9862669437626166-1.7100137494650904E-5i
-2.8241936743647766       -5                       7.089939934578102-3.76643478067617E-5i
-2.127544034423607        -2.191190827410566       7.914059693763327-4.479049762790727E-5i
-4.041675409333113        -2.154679001727038       8.762232798992981-4.475827808058584E-5i
-4.342085473559009        -1.7042264468749513      9.075122320048537-4.5465226661274716E-5i
-2.5803671859418076       -2.0903080035739663      8.253767626941118-4.5504931964519016E-5i
-2.937531935925638        -2.22718100952623        8.29773096697944-4.474075017438524E-5i
-3.4301847844517632       -2.08295086681468        8.600597125257144-4.517008138975313E-5i
-4.6250061146850845       -1.2421250261725403      9.359684510460712-4.585659758359529E-5i
-6.571920056507325        -0.0015824340518917903   9.99885480876764-4.49818594151188E-5i
-6.0974861955269395       -0.2953389237757704      9.882827429058677-4.5177787072651165E-5i
-5.621715728563268        -0.5893727863708782      9.747995816018376-4.5411310094549305E-5i
-5.138482450504969        -0.889772805446056       9.5849767611993-4.5663008806400846E-5i
-7.0451997267976605       0.8805890745323807       10.305378019542816-4.4741712139829044E-5i
-6.570191694045293        0.5857184773050514       10.214939120101404-4.4927979644069484E-5i
-7.519008228438865        1.7650027192191071       10.571803844046713-4.4435216850529934E-5i
-8                        2.0588235294117583       10.647739000750065-4.432729421157766E-5i
-7.04143079527433         1.467521863049108        10.498565652412934-4.4576244117577655E-5i
-7.520862896621486        2.3580526025242876       10.73404904069429-4.422568200369898E-5i
-8                        2.647058823529404        10.795457797778603-4.412233097692023E-5i
-0.18808426997321614      -3.1645139008926364      1.1655143528036775-6.647067207975738E-6i
-0.25                     -3.05                    0
-0.34861376624113455      -2.9990275295597955      1.6159308388095452-9.484721828084007E-6i
-0.45331586480830305      -2.8641562907151976      3.045868521278584-1.8098078895639034E-5i
-0.35784238282131203      -2.9020534594877643      2.1067204030855113-1.2531528534782583E-5i
-0.3828394168836153       -2.817423211003918       2.8243312810045778-1.691644693535299E-5i
-0.1352897314427992       -3.05                    0
-1.6914904645991207       -2.448870960902328       7.226591734238579-4.1599404674966794E-5i
-1.398528431910744        -2.8430378761690034      6.246442297981375-3.586723440876065E-5i
-1.351187790923602        -2.476405454234831       6.782633189535007-3.9693248662551156E-5i
-1.8310609512688765       -1.273815792675998       9.06299876095306-5.377542381093799E-5i
-1.5077208543585425       -1.255687401540423       9.214174885664185-5.6305831881076384E-5i
-1.696519192076543        -0.9789299827829043      9.457726923964143-5.735670008420805E-5i
-1.6922378590475986       -1.9962007147202512      7.961603414205171-4.661899503901626E-5i
-1.975108111410149        -1.6887347104658235      8.509842871273245-4.932448523955573E-5i
-1.6128394311568899       -1.597279679874783       8.627547164356654-5.1570556702389146E-5i
-0.8087241558474101       -2.7552491866565316      5.0156589311346425-2.961833609724206E-5i
-1.0017859637848632       -2.7975270929490508      5.476723003839257-3.2016560256851186E-5i
-0.5625240557707081       -2.8052716122572896      3.89723960155809-2.3161085547149565E-5i
-0.6639712799915128       -2.7384752426926964      4.5622270732225445-2.7129677935905832E-5i
-0.06529098400205122      -3.164734507862766       0.9442066355742932-5.361568506650418E-6i
-6.106226635438361E-16    -3.05                    0
-0.9982848928246829       -3.092422017656588       5.041774399855881-2.8989685254819817E-5i
-0.8119254839140841       -3.1905261206232396      4.391197364914438-2.5211656020873014E-5i
-0.690113502718215        -3.286822561272102       3.963019254468185-2.26589712105421E-5i
-0.5555304989959182       -3.3159947250331974      3.4792604172341597-1.98644405680105E-5i
-1.7514825028272514       -3.254392809357366       6.400165901982654-3.5727147397318525E-5i
-1.2820464225357788       -3.3226556533991336      5.5609821128879835-3.1410472504736346E-5i
-2.550765826449525        -4.549282419183702       6.872473889511025-3.679327489702973E-5i
-2.2817477610407977       -4.111810968093344       6.683656730865141-3.6141659771841576E-5i
-2.028851831264107        -3.666551154952357       6.540862025977245-3.584299597434238E-5i
-0.36042871311824437      -3.2827244809410447      2.5765179138017094-1.470193601547687E-5i
-0.2531353467470635       -3.273108606978461       2.103402349379651-1.1973296616478504E-5i
-0.12872354979815154      -3.2684308393140475      1.7489057696439918-9.923959193660082E-6i
-0.4462153258180629       -3.400897459375058       3.2486106144622906-1.8453703290912653E-5i
-2.258033384977667        -5                       6.568716418990771-3.538246160021512E-5i
-2.394425115337163        -1.713077201999279       8.569974724433797-4.809320420158555E-5i
-2.2144604905398273       -1.2926774661563767      8.99723218713058-5.152406001685482E-5i
-2.0229056739163602       -0.9459788606124447      9.37002358285048-5.4911583625582856E-5i
-3.8358935197041797       -1.6534016188307088      8.989139294435029-4.6032626847470926E-5i
-4.137933476916963        -1.3100112140757927      9.249134230064046-4.633716554607134E-5i
-2.9368143209175215       -1.7271819743170873      8.70337619141104-4.700346744940306E-5i
-3.40539031649934         -1.5455435810013376      8.958658241908045-4.690359416305229E-5i
-4.206887562632558        -0.8591197647026703      9.512792297983024-4.686050657806262E-5i
-4.680177492520803        -0.61433679944238        9.683655361692283-4.634540594122322E-5i
-6.10041886962103         0.2898167172575227       10.113824135733308-4.517796075382098E-5i
-5.627912542504574        -0.00797989996783568     9.996023755239323-4.55022083108684E-5i
-5.158365737947963        -0.3086159163213064      9.855145216908182-4.589444847786812E-5i
-6.566319956910435        1.1735410137572462       10.424722084331668-4.4770840429817495E-5i
-6.089362142641751        0.8793970604609234       10.343723414402655-4.504476095017516E-5i
-7.028661597569731        2.058837119679079        10.677481916691958-4.4355391455056465E-5i
-6.551014771820592        1.7536904557824406       10.619730204153958-4.453756851175011E-5i
-7.521912697656728        2.9401597827940265       10.86900258415654-4.401420746167158E-5i
-8                        3.235294117647051        10.916335619551225-4.392535887725375E-5i
-6.980343261513477        2.677688424918171        10.843585814397402-4.409656563967565E-5i
-7.54959892297236         3.4987917439162985       10.970254982237021-4.3833475076125146E-5i
-8                        3.8235294117646963       11.006016176029926-4.3762669491257224E-5i
-1.8360245941255702       -0.6696664620107637      9.661491373516705-5.8072485834174325E-5i