% Model:              VLR_3_01V03.mph
% Version:            COMSOL 5.5.0.292
% Date:               Jun 21 2020, 18:49
% Dimension:          2
% Nodes:              2196
% Expressions:        1
% Description:        Electric potential
% Length unit:        cm
% x                       y                        V2 (V)
1.3975597248931402        0.9792650521516945       10.52168816563758-2.9070701332762337E-5i
1.149066861522912         0.964181179939686        9.999932521804746-3.1901607443137E-5i
1.2990382497578632        0.7499997504439765       9.999932521804714-3.1894312221567526E-5i
1.5478834455694948        0.7243216781543769       10.38500914241483-2.9142387613261868E-5i
1.409539002854417         0.5130300180614935       9.999932521804697-3.188627106490966E-5i
1.6532225732202028        0.4444469805412262       10.236748572661597-2.9180769408207738E-5i
1.4772116647960043        0.2604720664305813       9.999932521804682-3.1877725999550957E-5i
1.7048943457188634        0.14945145655125314      10.07906472792766-2.922200969000515E-5i
1.5                       0                        9.999932521804675-3.186892479232458E-5i
1.7050471014265993        -0.14986225372526812     9.920582680179477-2.9212217891495144E-5i
1.4772106593504082        -0.26047776853607507     9.99993252180467-3.186012334517662E-5i
1.6528431071871037        -0.44484615830307667     9.763200498638385-2.9161316889297183E-5i
1.4095354215180553        -0.5130398575996976      9.999932521804656-3.185157800810313E-5i
1.2067525733894784        1.2060745329603901       10.64997712750482-2.8954445858745022E-5i
0.9641816539097096        1.149066463814838        9.999932521804773-3.190793025902508E-5i
0.9800142471640478        1.396130279696611        10.760645544697-2.8834243312598075E-5i
0.7500003944253057        1.2990378779550218       9.999932521804782-3.191307838283478E-5i
1.5485642454772597        -0.7238793039226736      9.614506649537418-2.9100612737558845E-5i
1.2990309378135554        -0.7500124149660692      9.999932521804626-3.184353653788765E-5i
0.727530543942857         1.5495970139866841       10.873794280500574-2.8631681059254505E-5i
0.5130308300018143        1.4095387073321717       9.999932521804784-3.191688306400016E-5i
0.44605301266128206       1.6539548084291964       10.943848317859242-2.8523995090126782E-5i
0.2604733176110247        1.4772114441787627       9.99993252180478-3.1919217102421825E-5i
1.3985968233891881        -0.9806742573562072      9.4740252997899-2.8999391264007726E-5i
1.1490229531109146        -0.9642335055494975      9.999932521804608-3.183623967090903E-5i
0.14942980781708287       1.7079835202115226       10.983916967074167-2.8452697548794586E-5i
0                         1.5                      9.99993252180477-3.1920007553089386E-5i
1.2071092083872477        -1.2077737371536554      9.345211970088032-2.8873076652975704E-5i
0.9641857194123948        -1.149063052439335       9.999932521804613-3.182991839395632E-5i
-0.15127982919851696      1.709198197915998        10.989739838832158-2.8432049481323012E-5i
-0.2604759007468612       1.4772109886979958       9.999932521804764-3.191921651759744E-5i
0.9799754088859804        -1.398944429963196       9.230736354754086-2.8730450452321468E-5i
0.750010070993209         -1.2990322911339665      9.9999325218046-3.182476990631586E-5i
-0.4463774375311925       1.6549017360682177       10.947986207317115-2.850912064238581E-5i
-0.5130374076931423       1.409536313227687        9.999932521804752-3.191688188357325E-5i
0.7232910606847538        -1.5487816229491322      9.135045370705596-2.8588767932819305E-5i
0.5130374076931423        -1.409536313227687       9.999932521804615-3.182096467423814E-5i
-0.725468628438513        1.5510905807738333       10.876304203376451-2.862383714893747E-5i
-0.750010070993209        1.2990322911339665       9.999932521804759-3.191307661796699E-5i
0.4440682181871146        -1.6511679809926456      9.06925679709687-2.8488041025037363E-5i
0.2604759007468612        -1.4772109886979958      9.99993252180463-3.181863007397241E-5i
-0.9814465305437738       1.4020817495291906       10.781230679620124-2.875351419090622E-5i
-0.9641857194123948       1.149063052439335        9.999932521804757-3.190792810407718E-5i
0.14964776965821747       -1.705960853718946       9.024635457257274-2.83969088000784E-5i
0                         -1.5                     9.999932521804638-3.181783906976405E-5i
-1.209183213517786        1.2110074563649078       10.666147095757752-2.888387880803904E-5i
-1.1490229531109146       0.9642335055494975       9.999932521804746-3.1901606799105935E-5i
-0.15061924591659484      -1.70627326918615        9.022967605991887-2.839099354762422E-5i
-0.26047776853607507      -1.4772106593504082      9.999932521804652-3.181862960893107E-5i
-1.4015050070433888       0.9836641168823215       10.53593965271935-2.899650498650275E-5i
-1.2990309378135554       0.7500124149660692       9.99993252180473-3.189430990483709E-5i
-0.44294316553571755      -1.6551155907325297      9.054168063158821-2.8435003537871972E-5i
-0.5130398575996976       -1.4095354215180553      9.999932521804633-3.182096371593848E-5i
-1.5494744090857253       0.7241011421264525       10.386855421266645-2.9126116978504163E-5i
-1.4095354215180553       0.5130398575996976       9.999932521804718-3.188626841830738E-5i
-0.7264481595446606       -1.5569964505147067      9.100732071309546-2.8461493383858096E-5i
-0.7500124149660692       -1.2990309378135554      9.999932521804617-3.182476849405739E-5i
-0.9844603279070855       -1.4024624186467396      9.212284078534141-2.8655051482036278E-5i
-0.9642335055494975       -1.1490229531109146      9.999932521804617-3.182991786271337E-5i
-1.651792726526354        0.4445641576045677       10.235516318410207-2.9196796369639327E-5i
-1.4772106593504082       0.26047776853607507      9.9999325218047-3.1877723084639446E-5i
-1.2119126523476957       -1.210384975166371       9.330257101939337-2.8803775250077626E-5i
-1.149063052439335        -0.9641857194123948      9.999932521804624-3.1836238986565656E-5i
-1.7060750737095782       0.15021888271383266      10.079790177977584-2.9207460518414272E-5i
-1.5                      0                        9.999932521804663-3.186892164871643E-5i
-1.7083142640548297       -0.14976307212566206     9.919580284080892-2.9174313506848505E-5i
-1.4772109886979958       -0.2604759007468612      9.99993252180464-3.186012033182017E-5i
-1.403820894202885        -0.9821205575064662      9.4626924027557-2.8934964390409992E-5i
-1.2990322911339665       -0.750010070993209       9.999932521804615-3.1843533971874014E-5i
-1.551690663841669        -0.7237128178695356      9.610419763917646-2.9067242553325808E-5i
-1.409536313227687        -0.5130374076931423      9.999932521804615-3.185157518828985E-5i
-1.6554509972700804       -0.44422017181652806     9.761333859085356-2.9133597010223766E-5i
0.9847230645340913        0.5050330166939598       9.999932521804872-3.188847323310128E-5i
1.2008648344332253        0.4979193201932035       9.999932521804697-3.188816796629548E-5i
1.0807768060422045        0.7224413440004743       9.999932521804723-3.189688163839472E-5i
0.9192416125180489        0.9192360185584644       9.999932521804766-3.190454986975617E-5i
0.8313272910502476        0.6678774959315521       9.999932521804928-3.1894806708327726E-5i
0.7153895190447785        0.8566739894903068       9.999932521804919-3.190215397864395E-5i
0.7224441620852138        1.0807749222983452       9.999932521804778-3.191087144452637E-5i
1.2748898793617054        0.2542750390838555       9.99993252180468-3.187874110340502E-5i
1.0224128903168839        0.29599006887008583      9.999932521804894-3.188037643276356E-5i
1.1000394500664892        0.08964047751280829      9.999932521804855-3.1872390679833064E-5i
1.3                       0                        9.999932521804677-3.186892477688131E-5i
1.2748902800748012        -0.25427302997131845     9.999932521804668-3.1859108471343955E-5i
1.0610299183128573        -0.12096244923492275     9.999932521804888-3.186424597840312E-5i
1.0596055206129462        -0.3394856756542466      9.999932521804842-3.185579273590305E-5i
1.2008674665427264        -0.49791297211385643     9.99993252180465-3.1849681611970946E-5i
0.9467820609760702        -0.5052548130729154      9.99993252180486-3.184936207251869E-5i
1.080783263646725         -0.7224316832899383      9.999932521804617-3.1840967797623725E-5i
0.4979217638008312        1.2008638212276481       9.99993252180478-3.191558950554979E-5i
0.506476331786558         0.9410708427980866       9.999932521804963-3.1905464450732424E-5i
0.3316141418675122        1.0762888869531588       9.999932521804924-3.191074706859622E-5i
0.2542774865505297        1.274889391215389        9.999932521804782-3.1918506673103005E-5i
0.9192399636727167        -0.9192376674108731      9.999932521804613-3.1833298761679396E-5i
0.8095056677279252        -0.6838518544522508      9.999932521804867-3.1842418853884944E-5i
0                         1.3                      9.999932521804768-3.191949994387847E-5i
0.10931980786731789       1.064593217881322        9.999932521804965-3.191030433312457E-5i
-0.10393032726764048      1.1209472354201107       9.999932521804915-3.191250048441871E-5i
-0.2542726496649377       1.2748903559257052       9.999932521804755-3.1918506097563524E-5i
0.722434315397021         -1.0807815042536755      9.9999325218046-3.1826976550810875E-5i
0.6368844629499694        -0.8395735824827906      9.999932521804872-3.183634705927953E-5i
-0.49791577134374276      1.2008663059005218       9.999932521804748-3.191558841077699E-5i
-0.3053391794608046       1.0335196511967168       9.999932521804949-3.190908259049185E-5i
0.5084580515760682        -0.9864169887835698      9.999932521804812-3.183061908771358E-5i
0.49791577134374276       -1.2008663059005218      9.999932521804606-3.182225815996631E-5i
-0.5126260877670702       0.9848384949288346       9.999932521804922-3.1907165465298416E-5i
-0.722434315397021        1.0807815042536755       9.999932521804762-3.1910869984418515E-5i
0.2542726496649377        -1.2748903559257052      9.99993252180463-3.181934051058474E-5i
0.30441895262960145       -1.0265167154650547      9.999932521804853-3.1829036642404866E-5i
-0.9192399636727167       0.9192376674108731       9.999932521804755-3.190454773849364E-5i
-0.6753386092608932       0.8357571304674056       9.999932521804945-3.1901345664982665E-5i
0.09303996630995835       -1.109229376845453       9.99993252180482-3.182580252510123E-5i
0                         -1.3                     9.999932521804638-3.181834669485146E-5i
-0.8531621289884193       0.7147457534798374       9.999932521804904-3.189661965055143E-5i
-1.080783263646725        0.7224316832899383       9.99993252180474-3.189687866772691E-5i
-0.25427302997131845      -1.2748902800748012      9.999932521804642-3.181933994670119E-5i
-0.10538155234965872      -1.0659210831003534      9.99993252180485-3.182749041412954E-5i
-0.3309785191594261       -1.0518819784006919      9.999932521804812-3.1828050218859284E-5i
-0.49791297211385643      -1.2008674665427264      9.999932521804627-3.1822256982977685E-5i
-1.2008674665427264       0.49791297211385643      9.999932521804721-3.188816482569457E-5i
-0.9395818995731745       0.5163281894979804       9.999932521804917-3.188891434809511E-5i
-0.7224316832899383       -1.080783263646725       9.999932521804624-3.182697483727949E-5i
-0.510399172809512        -0.9339474656970057      9.999932521804835-3.1832659728146946E-5i
-1.062896677181684        0.3387977857500095       9.999932521804872-3.1882026781301885E-5i
-1.2748902800748012       0.25427302997131845      9.999932521804698-3.187873796078578E-5i
-0.7189976595822637       -0.8618054782722095      9.999932521804793-3.183549378001911E-5i
-0.9192376674108731       -0.9192399636727167      9.99993252180462-3.183329655867299E-5i
-1.0807815042536755       -0.722434315397021       9.999932521804627-3.184096518422842E-5i
-0.8319228040530704       -0.666498582512621       9.999932521804837-3.184309343132464E-5i
-1.3                      0                        9.999932521804656-3.1868921667781646E-5i
-1.0664996676627645       0.10472812591542703      9.999932521804885-3.187297241448133E-5i
-1.127842537973944        -0.10191755939636227     9.999932521804817-3.1864981833151374E-5i
-1.2748903559257052       -0.2542726496649377      9.999932521804626-3.185910546224749E-5i
-1.2008663059005218       -0.49791577134374276     9.999932521804613-3.1849678685349795E-5i
-1.0319755508591002       -0.2986993336941238      9.999932521804846-3.185736601115865E-5i
-0.9965377364775745       -0.5119901962187896      9.999932521804796-3.184910540064643E-5i
4.470509997809495         4.730729336298896        19.470323798107223-7.134853619674525E-7i
4.570576436064643         4.663940347306893        19.282695924850433-9.702770037439517E-7i
4.59980102087764          4.820318846499434        19.06229000704123-1.2591714849387804E-6i
4.400941308941275         4.85614318498409         19.481754286119568-6.963388417573528E-7i
4.507322340672047         5                        19.23158756068934-1.0307087336997328E-6i
4.7183603442686195        5                        18.714667709046985-1.7178934041478558E-6i
4.455019858931651         4.63033996297325         19.702070834665136-4.02610463601692E-7i
4.326293011359069         4.682839726375187        19.769602302374746-3.1015058957854703E-7i
6.3016197756945775        5                        15.665078391683958-5.452444350398985E-6i
6.062498454368708         5                        15.948251879863319-5.1408271334193855E-6i
6.188469185622886         4.787008842745895        15.773169627087755-5.3383260458433786E-6i
6.442426048273921         4.754167458294307        15.497450317381416-5.635937826515072E-6i
6.591793948959259         5                        15.384320540256846-5.751741520642466E-6i
4.823579818931422         4.822480005858524        18.42856333114095-2.099550100656235E-6i
4.929398347865192         5                        18.147886430665675-2.4604152704106516E-6i
5.14153824367169          5                        17.610153314578966-3.1498732250336427E-6i
5.043842932424522         4.8151625963410645       17.829196377219954-2.8776608709250817E-6i
5.361552230619921         5                        17.115684165397763-3.7671615268170074E-6i
5.2662169534071825        4.805476604636121        17.294721809321-3.5527362627513097E-6i
5.590913904525575         5                        16.670375179054695-4.3064542820611415E-6i
5.496052586355981         4.806960696508838        16.822122207713978-4.130631887295325E-6i
5.826632450349006         5                        16.279763180709825-4.764484028584082E-6i
5.738757144843869         4.784084968324271        16.39188890478926-4.640681750064732E-6i
5.953589691281373         4.786565775258243        16.07199224989027-5.006611193320723E-6i
4.7229832074584435        4.651024435281763        18.734918635677445-1.7092299987402846E-6i
4.6166920741597846        4.5765092395936335       19.171885448356296-1.129810772627006E-6i
4.688349262175061         4.529166155927989        18.832642491033052-1.5981290310961217E-6i
4.5                       4.55                     20
4.601551465100779         4.488415259451525        19.225401284351477-1.0730437801656533E-6i
4.7035960414646           4.435467110704434        18.65395183992951-1.8634491216460915E-6i
4.614794460417483         4.387132504154806        18.923551041571642-1.5181697611539315E-6i
4.142992566895964         4.822044097505991        19.800581542514767-2.680403603907842E-7i
4.286238201323949         5                        19.610326587701852-5.234493546245786E-7i
4.168925928676451         4.640621502864087        19.91360107189874-1.1619240839855642E-7i
4.388423544709806         4.55                     20
4.257237873548844         4.55                     20
4.03969813323029          4.667523992509687        19.9309330193842-9.284932041165458E-8i
6.077055216279728         4.615621450014494        15.861899366867783-5.25058169184847E-6i
6.293625927839017         4.565698372908326        15.596528562362545-5.539969601325278E-6i
6.963512629991141         5                        15.113314200202387-6.030964589515227E-6i
6.80054868946915          4.656179278655579        15.180927221810947-5.966257828971549E-6i
6.5587288932299455        4.480254001363501        15.314787200579474-5.8378179398817505E-6i
7.197586343084033         4.599657646050701        14.940562465929757-6.2060680420423445E-6i
7.4398480973971575        5                        14.895022497366165-6.24855909674245E-6i
7.6250900135490935        4.6279924179785095       14.807242793611788-6.334559160348194E-6i
8                         5                        14.807108046973804-6.334247459618266E-6i
8                         4.411764705882353        14.711461879299003-6.426247817680652E-6i
4.935929482787084         4.644840152559121        18.056627844593635-2.603624475688261E-6i
5.1663947478845715        4.618178814992626        17.44238095842491-3.3902035404571482E-6i
5.387929553970716         4.59255395806421         16.946343143232777-4.0034764571039304E-6i
5.606222554026397         4.627335250288937        16.558827546477524-4.459376920925183E-6i
5.848262720826229         4.538898285919949        16.13635963254315-4.9539390654546075E-6i
4.701432300311466         4.333682401337794        18.450832429856177-2.1743812039387293E-6i
4.626714308599947         4.302472160176626        18.620520799278196-1.967009993569098E-6i
4.828051969739491         4.498793541668437        18.281147624703067-2.3397997508528247E-6i
4.787396791043321         4.375612801686055        18.24744765646817-2.4230492303138596E-6i
4.5                       4.45                     20
4.537100001581853         4.3178310941721705       18.968396157963777-1.4949171462691962E-6i
4.684880646648854         4.2325951021446775       18.24549619188485-2.4985744873499855E-6i
4.5900413459023905        4.218539829920662        18.460431782524555-2.23357857071514E-6i
3.9097762750053304        4.6398409131213345       19.96637045228884-4.5203276842618966E-8i
3.890806012327387         4.789543080278763        19.924590026500912-1.0135536045542605E-7i
3.801665377305482         4.642137492818224        19.97647995480129-3.1612982865933555E-8i
4.023255911235964         5                        19.84003580317553-2.1497772230703272E-7i
4.117732136407559         4.55                     20
3.978147996190352         4.55                     20
3.8385638559731454        4.55                     20
3.6758567360441496        4.722659728271472        19.9728642747594-3.647150683323876E-8i
3.698979715755938         4.55                     20
6.103800308024421         4.383109371844688        15.725960621829612-5.420349494968454E-6i
6.34369234712916          4.349391963754359        15.452723531292738-5.708047340180051E-6i
6.520500406242025         4.203865860319558        15.21649007328497-5.958922279545662E-6i
6.8822576889323           4.24005520521214         14.97835674642518-6.183055695792202E-6i
7.4880156272642715        4.128539737959489        14.665604486991029-6.474241041748904E-6i
8                         3.823529411764707        14.43290815408916-6.686104789156147E-6i
5.039905134548794         4.458490415406646        17.628024743440733-3.190926168951717E-6i
5.278535781292526         4.391237457227559        17.01859813992218-3.9581504943096E-6i
5.574474248232817         4.3685524133016935       16.45523994402407-4.621842621073849E-6i
5.883939883094996         4.207018772407315        15.880666614289566-5.287513343713254E-6i
4.792109143633454         4.268422802611072        18.027761776996844-2.755599230012325E-6i
4.921690837683132         4.338858539861298        17.792743697451666-3.0219915780885837E-6i
4.746063951998926         4.155128802000056        17.89393878353529-2.993868282287566E-6i
4.387412538980868         4.45                     20
4.430895700173954         4.330921485753628        19.301032599797235-1.0410075331577427E-6i
4.490863148039946         4.212986499976745        18.676103497616353-1.963626271161337E-6i
4.6583032441830685        4.115235300389873        17.994560525246545-2.90275628700215E-6i
4.561108959660585         4.1105927250312515       18.186672307231238-2.6744567523173326E-6i
3.516298584217904         4.8182617980445235       19.97789422233413-2.9710726331565117E-8i
3.4976383697612965        4.666137878390051        19.989864656665112-1.3622209617819899E-8i
3.7064889100298406        5                        19.94688843205787-7.138265774905987E-8i
7.5203266349500115        3.5068076050687838       14.262916715040461-6.849707155499906E-6i
8                         3.2352941176470598       13.993294302293464-7.071298337910529E-6i
7.520403368716676         2.922794695279361        13.742319111116204-7.2962809666495046E-6i
8                         2.647058823529412        13.422687183391895-7.52211640913557E-6i
3.387633216190236         4.701603897063978        19.991153564559443-1.1889846481290134E-8i
4.254962524005343         4.45                     20
4.312305880108264         4.328992991030862        19.43944114319063-8.648531229335354E-7i
4.115502084124465         4.45                     20
4.1795168517539905        4.321732073393307        19.48956114303797-8.177538825986157E-7i
3.5593955755387303        4.55                     20
3.419811435321524         4.55                     20
6.226112308681223         4.085965783541582        15.40618140383324-5.792845695336713E-6i
6.598957604388417         3.8879891268756657       14.950582525126622-6.250086639324052E-6i
7.016993522516366         3.727867382750114        14.593055988060565-6.5728646535079426E-6i
5.109154306316322         4.255166113180823        17.22484033779523-3.756005293178045E-6i
5.362026521715413         4.161692991310424        16.620650332181494-4.496109488644012E-6i
5.6545436110744784        4.060722745890473        16.05824815163297-5.14307365588015E-6i
5.91137096356772          3.9120570153943928       15.591410830953466-5.660874731625914E-6i
4.923430497403378         4.137625363039235        17.448606498163628-3.54640964600683E-6i
4.767827052217059         4.021266307266436        17.53276326572907-3.5343723281782653E-6i
4.376280620917171         4.203585220097828        18.8422928743083-1.7678917920789013E-6i
4.450607106723316         4.096700082189579        18.34411201873341-2.5036512107594867E-6i
4.62569350599251          4.003383011770904        17.757948464010596-3.2947464310854215E-6i
4.521139419993688         4.020571739767261        17.989033684040162-3.011989755385759E-6i
3.3126513203767196        5                        19.986476095613245-1.817644056498191E-8i
3.2113659945483706        4.695328187732062        19.99540588560915-6.174604148879255E-9i
3.0706664791820226        4.7974913715328285       19.99559436844011-5.921276065229536E-9i
3.0707925203973767        4.658804165279605        19.997852743845637-2.8859648992975708E-9i
2.9302279586994806        4.701201267133138        19.99821971664403-2.3927441124496057E-9i
7.042661495077465         3.1800554964415078       14.11455236107347-7.031691616767918E-6i
7.517733058399758         2.346098713459754        13.11849764134413-7.767652335341974E-6i
8                         2.0588235294117663       12.752550501290903-7.974693340957493E-6i
7.041699023872819         2.621453415529646        13.52428925742405-7.546066978479581E-6i
3.280227295104316         4.55                     20
3.140643154887109         4.55                     20
3.0010590146699014        4.55                     20
2.8614748744526946        4.55                     20
2.758283305033959         4.698431150653177        19.999029843440578
3.975993538899905         4.45                     20
4.039266726562798         4.32119253720734         19.53626982548335-7.7155613896089E-7i
4.2503251201082595        4.189878687158406        18.93632157770286-1.6796231755856975E-6i
4.104737132087176         4.190323667497516        19.044977566280554-1.5662905893952938E-6i
3.836484993675345         4.449999999999999        20
3.9008364371735484        4.320995435231449        19.566025937043722-7.485135937868714E-7i
3.696976448450785         4.45                     20
3.7652532436441324        4.32185394340554         19.589250263879396-7.331004705675857E-7i
3.557467903226226         4.449999999999999        20
3.6265740945601075        4.324394350379354        19.612020635127184-7.163950604699834E-7i
6.230595713967705         3.6710438623285784       15.050189889928989-6.2252442398114095E-6i
6.585290506046706         3.4104758555083983       14.549507095581598-6.691201587833115E-6i
5.677449296714592         3.8246306854643723       15.771878640214487-5.526624314904598E-6i
5.163842222770168         3.998237946355047        16.74781723094166-4.435365668121486E-6i
5.426234415150392         3.8978704884549664       16.19316471266757-5.077489920428061E-6i
5.8539118182502605        3.597565529378082        15.314233426995727-6.0472649484928885E-6i
4.949620758481706         3.8647474316715376       16.879126319581648-4.39690792536216E-6i
4.7063685833237034        3.848369572502839        17.234847152297814-4.047719620471837E-6i
4.327815850666891         4.063540198305643        18.407161985428697-2.483602909912597E-6i
4.427809726966615         3.968388951929443        17.97508615304027-3.104260242426648E-6i
4.546870961599838         3.8942224967961367       17.593296213882226-3.6170835810169844E-6i
2.7218907342354877        4.55                     20
2.6294573509927717        4.630394675421529        19.999655688374105
2.58230659401828          4.55                     20
2.5269698315352835        4.624254688131006        19.999776718783508
2.5747324431476146        4.759183840734792        19.99931262852874
2.832025476114458         5                        19.997448018093646-3.4299250960706477E-9i
7.612991067149926         -4.617603815742373       5.193322168533823-6.333070172441208E-6i
7.412072949980371         -5                       5.096851105015695-6.2384661141478184E-6i
8                         -5                       5.193768295805534-6.332991554719849E-6i
8                         -4.411764705882343       5.289393730351608-6.424952578069817E-6i
7.144464703743313         -4.596636501408036       5.036337430258857-6.181452816059698E-6i
6.566418579886533         2.8930846738415297       14.005542131239205-7.250649811065414E-6i
7.519888186320846         1.7614724266158817       12.404297278280948-8.21322561520581E-6i
8                         1.4705882352941193       12.011642066290667-8.370328151736947E-6i
7.039974979748431         2.0481307230773433       12.831301229146758-8.064542703727445E-6i
6.564030656888684         2.330415859569207        13.313226650682344-7.87898499750519E-6i
7.521008859770601         1.1746970164917672       11.63173731632631-8.573767135224006E-6i
8                         0.8823529411764723       11.224376597825549-8.661558560398059E-6i
3.9590131295082966        4.194100786586108        19.126276661840336-1.4873863572731979E-6i
4.0271804810594904        4.084499152316603        18.733104438460018-2.125412316616596E-6i
4.167462003118329         4.023888715404008        18.43843821724786-2.53581295788244E-6i
3.829006192173408         4.18882313783669         19.151521437794177-1.4924862577379833E-6i
3.7016410123449104        4.196909956001649        19.20734996403419-1.4384997598129146E-6i
3.4179593580016676        4.45                     20
3.487262221090444         4.323365335332292        19.619725595693883-7.258492491723698E-7i
3.2784508127771077        4.45                     20
3.349310619024401         4.320870217266199        19.620404969507742-7.480200187847336E-7i
3.552739368224219         4.2053863167637004       19.2586850820359-1.3941668917098265E-6i
6.081682072704875         3.201007319250936        14.648697661069907-6.757449957991903E-6i
5.497123665152909         3.597537295716735        15.693528600582669-5.739283808157758E-6i
5.212586837553796         3.6723252904732955       16.1548932813869-5.278911530559431E-6i
5.640977288774908         3.318105891100278        15.155324333181136-6.374053110388729E-6i
4.995431968043851         3.577833356841067        16.26633684338563-5.290064805494141E-6i
4.781723862401614         3.6452094517231313       16.672266744311354-4.859815179803523E-6i
4.579617608140941         3.7009277326772554       17.055803065065692-4.44380071356521E-6i
4.2981087795703665        3.8941535054496548       17.909989279650087-3.310766094620227E-6i
4.421866189060781         3.792392103130273        17.481965754453032-3.903122111294309E-6i
2.3706654938163747        4.687131323650975        19.999770543089355
2.442722453801073         4.55                     20
2.27983297296597          5                        19.99962191715902
6.851490434470424         -5                       4.815724587337394-5.9566974946371065E-6i
6.628176577206993         -4.640965075687651       4.693284133684677-5.8364370300901925E-6i
7.521636328736939         0.587378489093052        10.824168917458344-8.806981600148287E-6i
8                         0.29411764705882604      10.41111721353762-8.81545453421986E-6i
7.50256497128716          -4.120837685429832       5.342726933894148-6.4798370345488186E-6i
8                         -3.8235294117646963      5.567930414417703-6.684788499706498E-6i
6.863440447064639         -4.197414721950226       5.032241621198424-6.193995951956126E-6i