% Model:              VLR_3_01V03.mph
% Version:            COMSOL 5.5.0.292
% Date:               Jun 21 2020, 18:51
% Dimension:          2
% Nodes:              2411
% Expressions:        1
% Description:        Electric potential
% Length unit:        cm
% x                       y                        V2 (V)
-1.5535674301118985       -0.7250537289575332      9.323430580182558-5.218518584386768E-6i
-1.2990322911339665       -0.750010070993209       10.000019363098485-5.943706292850768E-6i
-1.409536313227687        -0.5130374076931423      10.000019363098463-5.957948196107514E-6i
-1.4071150951701807       -0.9867280394613388      9.047608650617768-5.141253871721176E-6i
-1.149063052439335        -0.9641857194123948      10.000019363098493-5.93075020749665E-6i
-1.6548609614837          -0.44408964578145776     9.592682112297888-5.269692429164234E-6i
-1.4772109886979958       -0.2604759007468612      10.000019363098446-5.973054011857709E-6i
-1.7066719012616387       -0.14997715136248954     9.863471241805167-5.301215231496019E-6i
-1.5                      0                        10.000019363098444-5.988597750617599E-6i
-1.7060659870883783       0.14944879244641976      10.135781020737475-5.316132690604643E-6i
-1.4772106593504082       0.26047776853607507      10.000019363098444-6.004141578406254E-6i
-1.2100014225004592       -1.2145155890832293      8.821395653381616-5.081000316452587E-6i
-0.9642335055494975       -1.1490229531109146      10.00001936309849-5.919484155069253E-6i
-0.9808588571512353       -1.4025658593635149      8.624051469828887-5.014078061670515E-6i
-0.7500124149660692       -1.2990309378135554      10.000019363098476-5.910269598656422E-6i
-0.7253673467705514       -1.5535964295480897      8.42562774632025-4.927159642455131E-6i
-0.5130398575996976       -1.4095354215180553      10.000019363098463-5.903433727510076E-6i
-1.651596829938444        0.4435870166023558       10.40182888318955-5.318177468905306E-6i
-1.4095354215180553       0.5130398575996976       10.000019363098454-6.019247341203502E-6i
-1.550243368292198        0.7242237410808803       10.667233320759449-5.29183797507312E-6i
-1.2990309378135554       0.7500124149660692       10.000019363098469-6.03348912654752E-6i
-0.4447180321313081       -1.6552641809998263      8.298842331876806-4.870192973142144E-6i
-0.26047776853607507      -1.4772106593504082      10.000019363098458-5.89922615134197E-6i
-1.398102206011652        0.9800953933977085       10.906375093534821-5.264487717976813E-6i
-1.1490229531109146       0.9642335055494975       10.000019363098493-6.046447763932147E-6i
-1.2064978915402866       1.2066454760128513       11.134708744545497-5.2159228988185E-6i
-0.9641857194123948       1.149063052439335        10.000019363098524-6.057713251473207E-6i
-0.15018526690060952      -1.7088889691935722      8.217253658187746-4.829658747645386E-6i
0                         -1.5                     10.000019363098453-5.897797985646588E-6i
-0.9779036178621328       1.3976863746452828       11.34085177920115-5.15741975784237E-6i
-0.750010070993209        1.2990322911339665       10.000019363098527-6.066925258229604E-6i
0.15000289988867863       -1.7097266037611216      8.210781478960667-4.8257877190378205E-6i
0.2604759007468612        -1.4772109886979958      10.000019363098477-5.899225880774176E-6i
-0.7209926588856781       1.5469138559556188       11.520256246643912-5.0933069011736345E-6i
-0.5130374076931423       1.409536313227687        10.000019363098545-6.073760901058297E-6i
0.4448652850238319        -1.6510778323190989      8.329293001665087-4.888553904308461E-6i
0.5130374076931423        -1.409536313227687       10.000019363098517-5.903433395714617E-6i
-0.4407811725606484       1.6513914799981715       11.666348600095825-5.031508102254424E-6i
-0.2604759007468612       1.4772109886979958       10.000019363098575-6.077968273094735E-6i
0.7224899742198758        -1.5476720633075396      8.471208384457563-4.955448065266439E-6i
0.750010070993209         -1.2990322911339665      10.000019363098554-5.910269068815658E-6i
-0.14780824255943478      1.6971757613181508       11.690158293878417-5.03008097178199E-6i
0                         1.5                      10.000019363098607-6.079396138715763E-6i
0.9782868638470064        -1.4004744057196878      8.642972808936717-5.026573050468676E-6i
0.9641857194123948        -1.149063052439335       10.000019363098588-5.919481070920016E-6i
0.14897609732724182       1.7097893529747725       11.789065624144337-4.968859724877589E-6i
0.2604733176110247        1.4772114441787627       10.000019363098636-6.077968088538857E-6i
1.205911937365765         -1.2112725388739345      8.847735382205977-5.09994271119133E-6i
1.1490229531109146        -0.9642335055494975      10.000019363098616-5.9307465435932015E-6i
0.5130308300018143        1.4095387073321717       10.000019363098692-6.0737605854037415E-6i
0.45101168048599277       1.66408161919761         11.775648264537653-4.962722496734703E-6i
1.3994638582947576        -0.984704448732699       9.075716126700561-5.1658653505241845E-6i
1.2990309378135554        -0.7500124149660692      10.000019363098625-5.943705199485598E-6i
0.7500003944253057        1.2990378779550218       10.00001936309873-6.066925015412651E-6i
0.7335730054743848        1.55318610714133         11.591822463211772-5.046251829993563E-6i
1.5524680586012898        -0.7262814306151539      9.323424814911506-5.2197352074375345E-6i
1.4095354215180553        -0.5130398575996976      10.00001936309864-5.957946998485004E-6i
0.9904751235912871        1.3996214002646141       11.388694755985938-5.123131102589446E-6i
0.9641816539097096        1.149066463814838        10.000019363098742-6.057712699707582E-6i
1.651890024939124         -0.4442876927072807      9.596848231996425-5.278127949254086E-6i
1.4772106593504082        -0.26047776853607507     10.000019363098653-5.973052771178525E-6i
1.2162907616822904        1.2083696225275338       11.172412102281498-5.18621250543444E-6i
1.149066861522912         0.964181179939686        10.000019363098732-6.046443723153008E-6i
1.7041408382310754        -0.1515849171930095      9.863242580373507-5.3081469103258216E-6i
1.5                       0                        10.00001936309867-5.988596595944474E-6i
1.706553965863823         0.14738079247870137      10.134036185272748-5.315185534618972E-6i
1.4772116647960043        0.2604720664305813       10.000019363098676-6.004140096516349E-6i
1.2990382497578632        0.7499997504439765       10.000019363098703-6.033487348801984E-6i
1.410257969066405         0.9818760506005706       10.94667200773898-5.227136995613038E-6i
1.5548996092692167        0.7201247300767353       10.669634257970111-5.2843566204336025E-6i
1.409539002854417         0.5130300180614935       10.00001936309869-6.019245672218061E-6i
1.6551575490770367        0.44015324254096144      10.402586159678501-5.31052104987315E-6i
-0.9965377364775745       -0.5119901962187896      10.000019363098646-5.953527444257713E-6i
-1.2008663059005218       -0.49791577134374276     10.000019363098465-5.95458257364342E-6i
-1.0807815042536755       -0.722434315397021       10.000019363098492-5.939136046087273E-6i
-1.2748903559257052       -0.2542726496649377      10.000019363098447-5.971255851420215E-6i
-1.0319755508591002       -0.2986993336941238      10.000019363098675-5.96815287487544E-6i
-1.127842537973944        -0.10191755939636227     10.000019363098616-5.9816309968801145E-6i
-1.3                      0                        10.000019363098438-5.988597741042386E-6i
-0.9192376674108731       -0.9192399636727167      10.000019363098497-5.92549790746619E-6i
-0.8319228040530704       -0.666498582512621       10.000019363098696-5.942844085418856E-6i
-0.7189976595822637       -0.8618054782722095      10.00001936309865-5.929338069074965E-6i
-0.7224316832899383       -1.080783263646725       10.000019363098485-5.914211023598252E-6i
-1.0664996676627645       0.10472812591542703      10.000019363098666-5.995761899227108E-6i
-1.2748902800748012       0.25427302997131845      10.000019363098444-6.005939623664791E-6i
-1.062896677181684        0.3387977857500095       10.000019363098634-6.011778966990561E-6i
-1.2008674665427264       0.49791297211385643      10.000019363098463-6.022612579047239E-6i
-0.49791297211385643      -1.2008674665427264      10.000019363098467-5.905753042314943E-6i
-0.510399172809512        -0.9339474656970057      10.000019363098685-5.924257477594882E-6i
-0.3309785191594261       -1.0518819784006919      10.00001936309865-5.916028717655727E-6i
-0.25427302997131845      -1.2748902800748012      10.000019363098456-5.900504962307405E-6i
0                         -1.3                     10.000019363098462-5.898713907614802E-6i
-0.10538155234965872      -1.0659210831003534      10.000019363098682-5.915009094429597E-6i
-1.080783263646725        0.7224316832899383       10.000019363098481-6.0380589365500835E-6i
-0.9395818995731745       0.5163281894979804       10.000019363098689-6.023988796256022E-6i
-0.8531621289884193       0.7147457534798374       10.000019363098675-6.037658466432914E-6i
-0.9192399636727167       0.9192376674108731       10.000019363098515-6.051696895951964E-6i
0.09303996630995835       -1.109229376845453       10.000019363098664-5.912002876486684E-6i
0.2542726496649377        -1.2748903559257052      10.000019363098483-5.900504771192362E-6i
-0.722434315397021        1.0807815042536755       10.000019363098524-6.062983625814298E-6i
-0.6753386092608932       0.8357571304674056       10.000019363098739-6.046082328609564E-6i
-0.5126260877670702       0.9848384949288346       10.000019363098717-6.056455430445611E-6i
-0.49791577134374276      1.2008663059005218       10.000019363098536-6.0714414290331896E-6i
0.49791577134374276       -1.2008663059005218      10.000019363098527-5.905752830617047E-6i
0.30441895262960145       -1.0265167154650547      10.000019363098732-5.9177784741986216E-6i
-0.2542726496649377       1.2748903559257052       10.000019363098568-6.076689383618147E-6i
-0.3053391794608046       1.0335196511967168       10.000019363098767-6.059900706453775E-6i
0.5084580515760682        -0.9864169887835698      10.000019363098724-5.920627736886756E-6i
0.722434315397021         -1.0807815042536755      10.000019363098568-5.914210658056119E-6i
-0.10393032726764048      1.1209472354201107       10.000019363098755-6.0660035408740945E-6i
0                         1.3                      10.000019363098604-6.078480201034187E-6i
0.9192399636727167        -0.9192376674108731      10.000019363098598-5.925497384782093E-6i
0.6368844629499694        -0.8395735824827906      10.0000193630988-5.930830541724231E-6i
0.2542774865505297        1.274889391215389        10.000019363098644-6.07668914916E-6i
0.10931980786731789       1.064593217881322        10.000019363098827-6.062092552345987E-6i
1.080783263646725         -0.7224316832899383      10.00001936309862-5.939135359816957E-6i
0.8095056677279252        -0.6838518544522508      10.00001936309882-5.94163943469714E-6i
0.3316141418675122        1.0762888869531588       10.000019363098815-6.062857015163833E-6i
0.4979217638008312        1.2008638212276481       10.000019363098692-6.071440856720701E-6i
1.2008674665427264        -0.49791297211385643     10.000019363098634-5.954581744511603E-6i
0.9467820609760702        -0.5052548130729154      10.000019363098824-5.953968117813192E-6i
0.7224441620852138        1.0807749222983452       10.000019363098735-6.0629825627638385E-6i
0.506476331786558         0.9410708427980866       10.000019363098888-6.053430788370583E-6i
1.0596055206129462        -0.3394856756542466      10.000019363098808-5.965367250784051E-6i
1.2748902800748012        -0.25427302997131845     10.000019363098644-5.971254711191168E-6i
0.7153895190447785        0.8566739894903068       10.000019363098868-6.04750412034702E-6i
0.9192416125180489        0.9192360185584644       10.000019363098744-6.051695995911304E-6i
1.0807768060422045        0.7224413440004743       10.000019363098716-6.03805865709031E-6i
0.8313272910502476        0.6678774959315521       10.00001936309888-6.034445251387048E-6i
0.9847230645340913        0.5050330166939598       10.000019363098843-6.023194700608327E-6i
1.2008648344332253        0.4979193201932035       10.000019363098696-6.022611940315457E-6i
1.3                       0                        10.00001936309866-5.9885965891581495E-6i
1.0610299183128573        -0.12096244923492275     10.000019363098843-5.980321223119189E-6i
1.1000394500664892        0.08964047751280829      10.000019363098827-5.9947262821076585E-6i
1.2748898793617054        0.2542750390838555       10.00001936309868-6.0059386236955745E-6i
1.0224128903168839        0.29599006887008583      10.000019363098863-6.008858338566209E-6i
-4.5965963447312275       -3.0846814713157134      0.9034087941881553-1.2206331909967224E-7i
-4.5                      -3.05                    0
-4.59995701334916         -2.9984358349639435      0.9111875815587377-1.2853162693805029E-7i
-4.704341331042981        -3.0497973798039153      1.4573144998443663-1.987630651827358E-7i
-4.677202240383523        -2.950206452016343       1.4477820326502089-2.0576981380679664E-7i
-4.612121791472357        -2.9014032030366765      1.2344708635913921-1.8257616462997887E-7i
-4.5                      -2.95                    0
-4.5466019994273195       -2.830316979226342       1.2354710088697882-1.939346889682992E-7i
-4.5438797571364695       -3.1553690920368647      0.7907118818741838-1.0373982049131373E-7i
-4.655464608543262        -3.158772963961761       1.2567223830126883-1.6597556175400345E-7i
-4.787107893140775        -3.158332228336232       1.7523198522722374-2.3058912048645982E-7i
-4.828248613950578        -3.0565647036683354      1.9524484846874184-2.6224285993396944E-7i
-4.4395286129236595       -3.1523469444622356      0.4592553213728073-5.92111729441667E-8i
-4.387412538980868        -3.05                    0
-7.617633844235148        -4.59744884772797        4.356562080363055-4.847404184465013E-7i
-8                        -5                       4.352609714519049-4.843331406054848E-7i
-7.4062314829593525       -5                       4.263089337351039-4.758814299556256E-7i
-8                        -4.411764705882353       4.440659207352723-4.925579409860812E-7i
-4.634754479635606        -2.817595674363427       1.6475030275473093-2.494879519712461E-7i
-4.705460958740431        -2.86044439993579        1.7982422838898116-2.6203735094210584E-7i
-4.794712954587601        -2.945547880227506       1.9689564353099647-2.73682003046945E-7i
-4.932104450141409        -2.991157269752177       2.3679503266098276-3.181630529618664E-7i
-4.930280405539611        -3.141504512313559       2.2142926929168705-2.890808822975766E-7i
-4.604275659382985        -2.741857300172428       1.8361106217739545-2.8794165918862154E-7i
-4.388423544709806        -2.9500000000000006      0
-4.437694392606802        -2.8380472274947985      0.8389937041685026-1.4050326703055202E-7i
-4.4967309570390315       -2.727148367318634       1.5897247292658347-2.634569985633408E-7i
-4.5678521220918284       -2.628169764989158       2.19281496039314-3.58226157394816E-7i
-4.497936212017256        -3.2499312741538007      0.8644758418018764-1.1070394278336005E-7i
-4.604662113363209        -3.2549445581505037      1.181358183486516-1.5232956711112604E-7i
-4.7245118340485135       -3.2632481410351946      1.5634183354442504-2.0168559456033956E-7i
-4.879800565719706        -3.280105669234622       2.015600763884999-2.579417764705708E-7i
-4.3190526598146555       -3.157744518394655       0.3103689018671249-3.924510982632799E-8i
-4.254962524005341        -3.05                    0
-4.187124937086374        -3.1638864195797076      0.23899431299535068-2.9808813961480614E-8i
-4.3861569702440155       -3.2598036607809675      0.6515010482600802-8.240488739973743E-8i
-4.451860280596956        -3.334478884066506       0.9191735095766178-1.1600564285412145E-7i
-4.115502084124262        -3.05                    0
-4.048770223906336        -3.168724164237713       0.19429805014378956-2.4001872340263664E-8i
-3.975993538899708        -3.05                    0
-3.908817481767394        -3.171810534686225       0.1622645164665472-1.9908493443785317E-8i
-3.8364849936751537       -3.05                    0
-3.7690924743491596       -3.1736272928201665      0.13780337452585736-1.6823850143621177E-8i
-4.257237873548838        -2.9499999999999997      0
-4.315703623108924        -2.833952880776284       0.6833221853622823-1.2389458433470614E-7i
-6.8124629747288905       -5                       3.9963628560762294-4.501483726539412E-7i
-7.1073317071136595       -4.470716893983402       4.2205211824296285-4.721496581150592E-7i
-7.574606031102736        -4.104762638774093       4.510312159096838-4.992224210916407E-7i
-8                        -3.823529411764707       4.705614060422361-5.167408150659652E-7i
-4.706062506545911        -2.751425470269543       2.1317311861456862-3.204727124666953E-7i
-4.807911842012025        -2.796487413371146       2.3340216711146806-3.3623400863163037E-7i
-4.929813678090066        -2.8476307933890976      2.593643068274702-3.5885553447103235E-7i
-5.0683892468807965       -3.28557232937453        2.4860653144670164-3.140440966582545E-7i
-5.056068736467761        -2.894598815554996       2.8531328538180074-3.8211566666640035E-7i
-5.085829917546963        -3.078273294196154       2.6883374597022467-3.485951641120164E-7i
-4.676783066720064        -2.6368995401092645      2.430505946444994-3.789355413447584E-7i
-4.3797370983893025       -2.7151164367729628      1.4053115733830828-2.48641179034404E-7i
-4.445219536107801        -2.6049689397285154      2.0319398174618315-3.5291018068947483E-7i
-4.519032611878469        -2.529801007727107       2.4759746849009314-4.1985261762859555E-7i
-4.6303177123969235       -2.511394735507769       2.7611966202975107-4.477977664802411E-7i
-6.489414430256879        -4.5032897782095285      3.8357664161651077-4.3501241543522115E-7i
-4.5498634594865806       -3.352369494077931       1.1620322944348853-1.4715935109208273E-7i
-4.76399020337507         -3.378061752899561       1.721413681017785-2.1787917377058723E-7i
-4.6563168089471745       -3.3499763836374674      1.4269038746892242-1.8134839125405568E-7i
-5.195170119113923        -3.4463658853836945      2.6754550842485383-3.2958866847947927E-7i
-4.922658743009208        -3.4994903322324467      2.108735908900256-2.6199863786243123E-7i
-4.260007531581921        -3.2794549951761156      0.5247877212423812-6.555381577578236E-8i
-4.123946718750482        -3.287284599180363       0.4225775435823324-5.2291695860020624E-8i
-3.981404446599093        -3.2895807661887697      0.34410092718511426-4.2278804346594164E-8i
-4.348556524529646        -3.384865348432496       0.8231958793480963-1.0274818415505643E-7i
-4.472368995718           -3.4348477381918654      1.1047762796749165-1.3815816253280132E-7i
-3.842239509871385        -3.3002991527875274      0.29903558126113267-3.6547907359386885E-8i
-3.7024208412378856       -3.2954074442095207      0.24909129362538326-3.032729767764109E-8i
-3.6276157145368195       -3.1742470708509107      0.11773938297194818-1.4320831616908886E-8i
-6.220967788465945        -5                       3.562749238988523-4.0670103775107085E-7i
-3.6969764484505987       -3.05                    0
-3.557467903226044        -3.05                    0
-3.4868758750100195       -3.1771140937176168      0.10375860592472104-1.2584872260805508E-8i
-3.41795935800149         -3.05                    0
-3.3478279104253232       -3.1780150639059377      0.09097298923324078-1.1010617922173045E-8i
-4.117732136407633        -2.95                    0
-4.186323649301493        -2.826764744849751       0.6332083181318174-1.2400220685962677E-7i
-3.9781479961904296       -2.95                    0
-4.050850111346765        -2.825563836995027       0.5869076161789364-1.2389801602785647E-7i
-4.254495071306323        -2.70333740681996        1.2980540047287297-2.464385374640224E-7i
-6.686204296999872        -4.068264750561599       4.127527116166996-4.65046344785783E-7i
-6.218661540708946        -3.9781831287561307      3.7898364469541757-4.340032836310236E-7i
-7.105443524610569        -3.832689276500479       4.493410928809006-4.991613408458438E-7i
-7.546876491272114        -3.533557545506183       4.849149092787292-5.30220761267396E-7i
-8                        -3.2352941176470598      5.14767562291392-5.551129968215924E-7i
-4.808912647786899        -2.6516429216984436      2.726869236424499-4.048698689868418E-7i
-4.902508306321234        -2.722233014706497       2.7882723748686105-3.9771938289813796E-7i
-5.0283448232995145       -2.734490989622281       3.076430950518293-4.247447231502334E-7i
-5.145860434738963        -2.7876624567861183      3.244386534743616-4.339279207435811E-7i
-5.320259568167346        -3.1978809521787923      3.0851078263341876-3.846666402429476E-7i
-5.483054933743388        -3.5225538895981394      3.135671732404433-3.772406679945884E-7i
-5.229253428288084        -2.936376976514982       3.192826854544476-4.135027667641351E-7i
-4.779385032568074        -2.5156087173052564      3.057696704463653-4.687649790162623E-7i
-4.328540519420588        -2.583259970440749       1.9416812191079036-3.583915369136566E-7i
-4.417453109370919        -2.47985957363982        2.501628513427488-4.4696914101202987E-7i
-4.534583364371985        -2.4074225274979626      2.9583826058352294-5.056094023682346E-7i
-4.686360427062799        -2.3681159300662045      3.3432277871588947-5.398515254414333E-7i
-5.180202977335106        -3.7257222573676643      2.5622888875279624-3.096058800878051E-7i
-5.5732184221734204       -4.003187396090898       3.0585481125522613-3.594469489060088E-7i
-5.900323626269446        -4.507092727211834       3.3079687467212793-3.8140270269636603E-7i
-4.6389944296192525       -3.519224178493679       1.5154614022842399-1.8865203536287504E-7i
-4.859771700337898        -3.773469798328027       2.0212877177171893-2.459618038099817E-7i
-4.194904352163086        -3.4240601536086395      0.6896335002651525-8.519767315956584E-8i
-4.0589678824731035       -3.3846020366198335      0.5172404357586698-6.36127546651602E-8i
-3.9221450323755196       -3.43218597228522        0.4851259529895498-5.930292841264753E-8i
-4.372232641363613        -3.5909404406528713      1.1139785556446-1.3720687873199436E-7i
-3.5528616056128657       -3.2993362680372855      0.2152769266526018-2.6126954994988078E-8i
-3.769556782899256        -3.439182906535264       0.41280217828044147-5.025328542061058E-8i
-3.6330754035232955       -3.4023064349660426      0.32518387262312304-3.9491620729334297E-8i
-3.4175094807824546       -3.3111044569446935      0.1963742732925425-2.377930010514919E-8i
-3.277875707456028        -3.3037961544553873      0.16705317565099762-2.019385146949675E-8i
-5.631712714544701        -5                       2.9889564788009495-3.464224413474778E-7i
-3.208255200965985        -3.1761025449616955      0.07849966752814096-9.485242781650786E-9i
-3.1380372487192156       -3.3012180587194115      0.14537151091985698-1.754878504274162E-8i
-3.068895258825021        -3.1757787866739697      0.06893881619256292-8.319223647305933E-9i
-3.278450812776935        -3.05                    0
-3.8385638559732254       -2.95                    0
-3.9118012796510873       -2.8258876370306822      0.5528143249708172-1.2556368482761563E-7i
-3.698979715756021        -2.95                    0
-3.7717261425002877       -2.824781203616974       0.5364024040445856-1.3076364976630686E-7i
-3.5593955755388174       -2.95                    0
-3.6319108544218257       -2.823931114547633       0.5259133768109848-1.3722837813314136E-7i
-4.122030763328394        -2.6974544562006773      1.216345876865071-2.4815743813826684E-7i
-3.9890650929929037       -2.70327541786874        1.119691323632517-2.4488473324423366E-7i
-4.193668712903937        -2.562991746861584       1.8764465992921358-3.7151665805504897E-7i
-5.8668706749461235       -3.6171223401666217      3.6104218565811768-4.2264906541089974E-7i
-6.191545919329597        -3.587312777436067       3.9923673676452136-4.590794774030823E-7i
-5.675717865175023        -3.2406744310261972      3.644292796596623-4.3821221799526985E-7i
-6.56716983571366         -3.557335796043089       4.347001169252685-4.904332687950881E-7i
-7.06669173157232         -3.2549389804011106      4.9096555141343385-5.393221598110464E-7i
-7.534517660347059        -2.9501308479496497      5.372198382501609-5.752515863006489E-7i
-8                        -2.647058823529412       5.761204956993094-6.039615872627016E-7i
-4.953490347679513        -2.5725919428923723      3.275165840602047-4.7176376841363636E-7i
-5.165892788521427        -2.6290076853762576      3.586593881814185-4.86699326136058E-7i
-5.282441302407384        -2.7534102657746677      3.582743701053798-4.689711662707791E-7i
-5.504401466423252        -2.875349859157849       3.7918472421749674-4.744621256470371E-7i
-4.88309520863714         -2.3651424354488437      3.6898282339824147-5.562807738186583E-7i
-4.280663173320851        -2.433288414145178       2.509003007286896-4.800625910610028E-7i
-4.396679451125823        -2.3204165822994063      3.080719620596987-5.632441577998939E-7i
-4.549178082491667        -2.2340001666095346      3.5798868456221125-6.170908267733553E-7i
-4.743047615415725        -2.1749940180290523      4.027548332449816-6.468253732882292E-7i
-5.063162108141341        -4.109746074113433       2.3518642777393883-2.8018506617772823E-7i
-5.303962623915973        -4.550064792422434       2.639599075710731-3.0932824241896447E-7i
-4.527891470607169        -3.8102390460399316      1.50552711280384-1.8336970060674244E-7i
-4.702098950194312        -4.035761594293149       1.8395733230827136-2.2138403101391278E-7i
-4.069814666365991        -3.590491969157736       0.7639714709010149-9.336883671837351E-8i
-3.8536295783636634       -3.5698629151886427      0.5801269352005302-7.058839547696891E-8i
-4.206496416509147        -3.8223528127014816      1.0998349230723738-1.3362258101580994E-7i
-3.4946650371747614       -3.4545964075005258      0.3211344540513567-3.8892582550246706E-8i
-3.6493592225419156       -3.5968630308173664      0.48920256634143794-5.928849635661358E-8i
-2.999335928698814        -3.303584866166069       0.12961783601762097-1.5630093384959228E-8i
-3.3449507490157284       -3.4537687540514055      0.27756692626987073-3.355377471544719E-8i
-3.20608749976737         -3.4168317452274435      0.2229638748907678-2.692089467686509E-8i
-3.0720515941896336       -3.4399872135224734      0.20953728961870152-2.52704681664736E-8i
-5.042457640623457        -5                       2.330005321061539-2.7386318309289463E-7i
-2.9295160434675673       -3.174123660046112       0.060137548055246716-7.249767019554252E-9i
-2.8609423681703126       -3.291846624440067       0.10969828902179009-1.3217079443867554E-8i
-2.788834344275164        -3.1744349914859957      0.053400404961500926-6.432385176871115E-9i
-2.712320227954433        -3.3040500992815858      0.10148723570639766-1.22187648423546E-8i
-2.6501441828832815       -3.1778274360194896      0.04879990093656845-5.8745244274732906E-9i
-3.1389422675523804       -3.05                    0
-2.999433722327826        -3.05                    0
-3.419811435321614        -2.9499999999999997      0
-3.491034794537374        -2.8248668121246534      0.5128622134454456-1.4297114873681493E-7i
-3.8424544789029103       -2.7017053637033537      1.075996756700067-2.5350007565016634E-7i
-3.7031937533210537       -2.6912670462782935      1.087477357742744-2.743318004992429E-7i
-3.5669169823143316       -2.7024120812551278      1.020293535873465-2.7458609456287467E-7i
-3.2802272951044107       -2.95                    0
-3.351582278806454        -2.8237438099054373      0.5119593039062137-1.520251472155285E-7i
-3.140643154887207        -2.95                    0
-3.214004570064936        -2.8243741702708505      0.5067777388432785-1.5980165710769462E-7i
-4.051911121551851        -2.5553139004778855      1.7969164411321736-3.8235251203875513E-7i
-3.914940368314232        -2.598257061542653       1.5409859709615166-3.507486687474099E-7i
-4.119632617598479        -2.405492750458549       2.4660763792434284-5.105357467985575E-7i
-6.16029452749561         -3.2346002321036105      4.252232676376671-4.914302972203029E-7i
-5.816721830580661        -2.9471138010450977      4.15886553812104-4.987684760561818E-7i
-6.595255385681531        -2.976512264361598       4.903344984492882-5.484122290659261E-7i
-7.062834771155824        -2.6677000865278004      5.534235114197-5.953984255923929E-7i
-7.530703186746606        -2.3622358759119138      6.0694402546181445-6.293411638645462E-7i
-8                        -2.0588235294117663      6.5301360649089135-6.572893713189928E-7i
-5.135665544273657        -2.3961678400201234      4.039246953767534-5.64251650352412E-7i
-5.407688822873708        -2.5558574080670624      4.150127073344929-5.38954558893236E-7i
-5.71333353437858         -2.6719092804294733      4.399514029676693-5.395813944814223E-7i
-4.980056817845842        -2.1467444775723474      4.428875525441495-6.576018099333808E-7i
-4.227438392563223        -2.2481668197700686      3.1676445829926547-6.274119377946403E-7i
-4.37127972762371         -2.1198272129662477      3.76504054840735-7.031142387323052E-7i
-4.563142592922084        -2.013233584382163       4.31246763268888-7.467563961235142E-7i