% Model:              VLR_3_01V03.mph
% Version:            COMSOL 5.5.0.292
% Date:               Jun 21 2020, 19:04
% Dimension:          2
% Nodes:              2300
% Expressions:        1
% Description:        Electric potential
% Length unit:        cm
% x                       y                        V2 (V)
1.3988104812976685        0.9792290967716513       10.532954254945269-2.115633107124206E-5i
1.149066861522912         0.964181179939686        10.000049402559402-2.3264224108798857E-5i
1.2990382497578632        0.7499997504439765       10.000049402559375-2.325686256861636E-5i
1.5479090907878503        0.7230478298857097       10.391567928840843-2.1215981032035477E-5i
1.409539002854417         0.5130300180614935       10.000049402559375-2.324874078645792E-5i
1.6518380435400188        0.4443018988468091       10.240984438048985-2.1245165526728724E-5i
1.4772116647960043        0.2604720664305813       10.00004940255937-2.3240103936844474E-5i
1.7051811034478406        0.1499507209029401       10.081481020564297-2.1256356433521696E-5i
1.5                       0                        10.00004940255938-2.3231204802339975E-5i
1.7040940650124075        -0.14929431697106021     9.919346067667954-2.1258678882487385E-5i
1.4772106593504082        -0.26047776853607507     10.000049402559384-2.3222305467727446E-5i
1.2072647638130263        1.2066747042986596       10.661548093464775-2.1080148504653437E-5i
0.9641816539097096        1.149066463814838        10.000049402559428-2.327059795574197E-5i
0.9800893376464632        1.3982853203885315       10.775701031425653-2.098813318962932E-5i
0.7500003944253057        1.2990378779550218       10.00004940255945-2.3275782687516205E-5i
1.6526079141032206        -0.4436375165341632      9.758955255329267-2.1217493311314345E-5i
1.4095354215180553        -0.5130398575996976      10.000049402559384-2.321366845247493E-5i
0.7260924153980141        1.5489145899990708       10.876526131347603-2.087752106853933E-5i
0.5130308300018143        1.4095387073321717       10.000049402559444-2.327961142175058E-5i
0.4464108040848996        1.6543243786631485       10.951871401687221-2.0785448001416196E-5i
0.2604733176110247        1.4772114441787627       10.000049402559451-2.328195900885492E-5i
1.5505884924022975        -0.7253425781689191      9.602056880435377-2.1147658809322152E-5i
1.2990309378135554        -0.7500124149660692      10.00004940255939-2.3205546541979272E-5i
0.14966470367121068       1.7091608549569464       10.994647382207996-2.0727253258266538E-5i
0                         1.5                      10.000049402559455-2.3282753984149138E-5i
1.4008823986091536        -0.9840007208900838      9.455149068134297-2.1063245676645153E-5i
1.1490229531109146        -0.9642335055494975      10.000049402559407-2.3198183604679556E-5i
-0.1497788420899358       1.7073038489016483       10.98664307270806-2.0747719876782205E-5i
-0.2604759007468612       1.4772109886979958       10.000049402559455-2.3281958943029942E-5i
1.2082803354860845        -1.2120687973901434      9.323605723828193-2.0972370447874973E-5i
0.9641857194123948        -1.149063052439335       10.000049402559435-2.319181162992264E-5i
-0.444167642208028        1.656125427865264        10.957149210290359-2.077237242550098E-5i
-0.5130374076931423       1.409536313227687        10.000049402559469-2.3279611306954406E-5i
0.9795047766124927        -1.4021977620183315      9.213335700134605-2.08859465573198E-5i
0.750010070993209         -1.2990322911339665      10.000049402559464-2.3186626907179138E-5i
-0.7240419539375974       1.5506065166734169       10.879807917595869-2.0869794331089202E-5i
-0.750010070993209        1.2990322911339665       10.000049402559494-2.3275782484432497E-5i
0.7213925838289377        -1.5534085622822413      9.113783523655327-2.077453677394128E-5i
0.5130374076931423        -1.409536313227687       10.000049402559503-2.3182798050635564E-5i
-0.9809999849136383       1.4013142116255781       10.786633636360852-2.095681906941881E-5i
-0.9641857194123948       1.149063052439335        10.000049402559517-2.327059781192137E-5i
0.44163784292663555       -1.6534761115295737      9.056158271103946-2.0722889658412084E-5i
0.2604759007468612        -1.4772109886979958      10.00004940255956-2.31804503668626E-5i
-1.2092375610339465       1.2112625713275373       10.676292903977503-2.103364977552786E-5i
-1.1490229531109146       0.9642335055494975       10.000049402559535-2.3264225865706444E-5i
0.14909774462358297       -1.7061831631135722      9.018539550941568-2.06738316630793E-5i
0                         -1.5                     10.000049402559608-2.3179655293001068E-5i
-1.3997599373265963       0.9817500926290751       10.539050043714854-2.1134777210749692E-5i
-1.2990309378135554       0.7500124149660692       10.000049402559545-2.3256862942017196E-5i
-0.15058690198504246      -1.7085314509470353      9.007881375479341-2.0646612566949197E-5i
-0.26047776853607507      -1.4772106593504082      10.00004940255964-2.3180450301307955E-5i
-1.5494107398596737       0.723740120572657        10.394490047156852-2.1200827987204885E-5i
-1.4095354215180553       0.5130398575996976       10.000049402559574-2.3248741025070507E-5i
-0.44490178700206495      -1.65286454118971        9.055609142759254-2.0720656164626392E-5i
-0.5130398575996976       -1.4095354215180553      10.00004940255965-2.3182797946269602E-5i
-1.6538647255138552       0.4449010172151922       10.24328083337742-2.122640486918548E-5i
-1.4772106593504082       0.26047776853607507      10.000049402559593-2.324010399141323E-5i
-0.7253352357714702       -1.5519348231233276      9.113573649382337-2.077210909389804E-5i
-0.7500124149660692       -1.2990309378135554      10.000049402559648-2.318662677233979E-5i
-0.9858784565282518       -1.403743674517416       9.197535572619616-2.0836865935194875E-5i
-0.9642335055494975       -1.1490229531109146      10.000049402559664-2.3191812788396732E-5i
-1.2139648789549706       -1.2097342946630891      9.318853921016931-2.095092233122329E-5i
-1.149063052439335        -0.9641857194123948      10.000049402559686-2.3198185005566463E-5i
-1.7060922302410908       0.14988177667752123      10.08172180941284-2.1248463580135448E-5i
-1.5                      0                        10.000049402559616-2.323120462063514E-5i
-1.7057117317758668       -0.14954050789826293     9.918693320336892-2.12443905679444E-5i
-1.4772109886979958       -0.2604759007468612      10.000049402559656-2.3222305316091805E-5i
-1.404146234711213        -0.9797563173564157      9.45708113977537-2.10625789618107E-5i
-1.2990322911339665       -0.750010070993209       10.000049402559691-2.3205546378611844E-5i
-1.5518934570983185       -0.7221972743916493      9.604034405936225-2.1149808132316532E-5i
-1.409536313227687        -0.5130374076931423      10.000049402559677-2.32136682987839E-5i
-1.6546843606778796       -0.4430575949250988      9.75754568654696-2.120123031929592E-5i
0.9847230645340913        0.5050330166939598       10.000049402559569-2.325095600920538E-5i
1.2008648344332253        0.4979193201932035       10.000049402559366-2.3250655331557398E-5i
1.0807768060422045        0.7224413440004743       10.000049402559384-2.3259453899139885E-5i
0.9192416125180489        0.9192360185584644       10.00004940255942-2.3267189066435108E-5i
0.8313272910502476        0.6678774959315521       10.000049402559613-2.3257347573333814E-5i
0.7153895190447785        0.8566739894903068       10.0000494025596-2.3264761044824856E-5i
0.7224441620852138        1.0807749222983452       10.000049402559442-2.3273559223163022E-5i
1.2748898793617054        0.2542750390838555       10.00004940255937-2.324112903748465E-5i
1.0224128903168839        0.29599006887008583      10.000049402559599-2.324277666331518E-5i
1.1000394500664892        0.08964047751280829      10.000049402559567-2.3234707788388088E-5i
1.3                       0                        10.000049402559377-2.323120480131417E-5i
1.2748902800748012        -0.25427302997131845     10.000049402559384-2.3221280634114942E-5i
1.0610299183128573        -0.12096244923492275     10.000049402559606-2.3226476821826544E-5i
1.0596055206129462        -0.3394856756542466      10.000049402559577-2.3217934714959958E-5i
1.2008674665427264        -0.49791297211385643     10.000049402559387-2.3211754477844057E-5i
0.4979217638008312        1.2008638212276481       10.000049402559437-2.3278309258978384E-5i
0.506476331786558         0.9410708427980866       10.000049402559647-2.3268094944730983E-5i
0.3316141418675122        1.0762888869531588       10.000049402559608-2.3273420112980122E-5i
0.2542774865505297        1.274889391215389        10.000049402559455-2.3281244353252055E-5i
0.9467820609760702        -0.5052548130729154      10.000049402559627-2.3211441106090302E-5i
1.080783263646725         -0.7224316832899383      10.000049402559393-2.320295599432961E-5i
0                         1.3                      10.000049402559453-2.3282243568990757E-5i
0.10931980786731789       1.064593217881322        10.000049402559656-2.327297048925783E-5i
-0.10393032726764048      1.1209472354201107       10.000049402559625-2.327518580899667E-5i
-0.2542726496649377       1.2748903559257052       10.000049402559453-2.3281244366454134E-5i
0.9192399636727167        -0.9192376674108731      10.00004940255942-2.319522033258467E-5i
0.8095056677279252        -0.6838518544522508      10.000049402559663-2.3204433700605204E-5i
-0.49791577134374276      1.2008663059005218       10.000049402559474-2.3278309339216937E-5i
-0.3053391794608046       1.0335196511967168       10.000049402559675-2.327174124528464E-5i
0.722434315397021         -1.0807815042536755      10.000049402559453-2.3188849932996852E-5i
0.6368844629499694        -0.8395735824827906      10.000049402559704-2.3198310305333912E-5i
-0.5126260877670702       0.9848384949288346       10.000049402559672-2.3269812733823377E-5i
-0.722434315397021        1.0807815042536755       10.000049402559506-2.327355947528669E-5i
0.5084580515760682        -0.9864169887835698      10.000049402559677-2.319253422459449E-5i
0.49791577134374276       -1.2008663059005218      10.000049402559492-2.3184100021264237E-5i
-0.9192399636727167       0.9192376674108731       10.000049402559522-2.3267189116616467E-5i
-0.6753386092608932       0.8357571304674056       10.000049402559723-2.3263945264033125E-5i
0.2542726496649377        -1.2748903559257052      10.000049402559553-2.3181164958328888E-5i
0.30441895262960145       -1.0265167154650547      10.00004940255974-2.3190943178318307E-5i
-0.8531621289884193       0.7147457534798374       10.000049402559705-2.325918108402975E-5i
-1.080783263646725        0.7224316832899383       10.000049402559545-2.3259453474265627E-5i
0.09303996630995835       -1.109229376845453       10.000049402559751-2.318768392090372E-5i
0                         -1.3                     10.00004940255961-2.318016572094037E-5i
-1.2008674665427264       0.49791297211385643      10.000049402559563-2.3250654994544157E-5i
-0.9395818995731745       0.5163281894979804       10.000049402559746-2.3251402385340327E-5i
-0.25427302997131845      -1.2748902800748012      10.000049402559641-2.3181164882276585E-5i
-0.10538155234965872      -1.0659210831003534      10.000049402559798-2.318938651772723E-5i
-0.3309785191594261       -1.0518819784006919      10.000049402559794-2.3189948171361542E-5i
-0.49791297211385643      -1.2008674665427264      10.000049402559648-2.318409983404538E-5i
-0.7224316832899383       -1.080783263646725       10.000049402559657-2.318884966445324E-5i
-0.510399172809512        -0.9339474656970057      10.000049402559826-2.3194594310524857E-5i
-1.062896677181684        0.3387977857500095       10.000049402559739-2.3244447579994463E-5i
-1.2748902800748012       0.25427302997131845      10.000049402559585-2.3241128824109664E-5i
-0.7189976595822637       -0.8618054782722095      10.000049402559807-2.3197447385253066E-5i
-0.9192376674108731       -0.9192399636727167      10.000049402559673-2.31952200183093E-5i
-1.0807815042536755       -0.722434315397021       10.0000494025597-2.3202955662084853E-5i
-0.8319228040530704       -0.666498582512621       10.000049402559851-2.3205115805108676E-5i
-1.3                      0                        10.000049402559616-2.323120462185717E-5i
-1.0664996676627645       0.10472812591542703      10.000049402559789-2.3235297931743038E-5i
-1.127842537973944        -0.10191755939636227     10.00004940255978-2.322722241461258E-5i
-1.2748903559257052       -0.2542726496649377      10.000049402559648-2.3221280436320904E-5i
-1.2008663059005218       -0.49791577134374276     10.000049402559679-2.3211754140324073E-5i
-1.0319755508591002       -0.2986993336941238      10.00004940255984-2.321952735877925E-5i
-0.9965377364775745       -0.5119901962187896      10.00004940255982-2.321118229697963E-5i
5.091825537078924         4.828642498019624        19.13861050533458-7.566212307115145E-7i
5.208106355993822         5                        18.824524566567188-1.0284552273418196E-6i
4.997236055295913         5                        19.301180145747345-6.133513926433347E-7i
5.097379062696393         4.563177083881621        19.317977801170596-6.090367009784145E-7i
5.161568296381946         4.598933863519633        19.032457549166587-8.595710737914777E-7i
5.0704818972180785        4.657330051440652        19.335754333868753-5.876759979302608E-7i
5.1698006690628           4.519258589428173        18.972646871025074-9.204330115948748E-7i
4.909591813604027         4.841021500340498        19.51009104444282-4.306735234736114E-7i
4.771458077388619         5                        19.65243623966118-3.054491373745892E-7i
4.975403805373081         4.730235686068971        19.494138729460726-4.456742200331461E-7i
4.773923569550702         4.785112285155188        19.729060896409624-2.3829285746449446E-7i
4.634564353169443         4.828762659900402        19.815944337484847-1.6182744205081083E-7i
4.9565078364878055        4.635291704241199        19.704437245829947-2.611321153162264E-7i
5                         4.55                     20
5.08504445081914          4.490362915019645        19.36699575399729-5.726112759601463E-7i
5.155352538741596         4.446907315799619        18.94606850147283-9.546716931951808E-7i
5.100353240633812         4.401196780269604        19.08446081527006-8.411967972996903E-7i
5.2116320509939245        4.6902717115378785       18.84987873207277-1.0138413452366827E-6i
5.301956615071337         4.836087793807485        18.589581794295373-1.233656928839123E-6i
5.418556377713649         5                        18.299250500056413-1.480074409003336E-6i
5.256697203577215         4.564691558305624        18.672801439400047-1.178510990871945E-6i
5.232708607135593         4.452532744410946        18.649509082855857-1.2142332519959276E-6i
5.186125492668285         4.371364688685313        18.672084302181315-1.2112622137391802E-6i
5.125655859550363         4.322658582683292        18.755808969749722-1.152048324273973E-6i
4.521963891712025         5                        19.850940852178994-1.3104311338061963E-7i
4.498170847685495         4.781695249276195        19.899787700901644-8.811212233397438E-8i
4.361278924543235         4.835281273538954        19.928204113362394-6.312323309808235E-8i
4.848611942476568         4.6888926763028795       19.754282332075473-2.163817847959255E-7i
4.698886459475132         4.680621669611503        19.87230416065108-1.1233850156809808E-7i
4.565507698480734         4.684014352729091        19.920061587749583-7.029824727995389E-8i
4.421567405403682         4.681173506338054        19.95307486034829-4.12602181447343E-8i
4.217697346437051         4.777906567187996        19.96292710314447-3.2594810130123856E-8i
4.291205307528257         4.686050162484091        19.969311562827418-2.6982202000244367E-8i
4.888041601602849         4.55                     20
5                         4.45                     20
5.037238859369791         4.327475369315524        19.05897257983092-8.85822814815501E-7i
5.513203831949492         4.818445633864478        18.0504373592391-1.6945119171555682E-6i
5.629006399433477         5                        17.804115196322208-1.897819106361172E-6i
5.391635961815306         4.645508520970672        18.303316360237442-1.4899355726913915E-6i
5.346800497614624         4.463554030231511        18.291991953650072-1.5210488059356873E-6i
5.097904956208703         4.238564930341172        18.579947224581158-1.3346347734657715E-6i
5.274485236887387         4.3486882726248          18.340840362996673-1.5021354235836341E-6i
5.195031745990894         4.274028634542219        18.41415907632666-1.4612168981143261E-6i
5.728158357896092         4.806449587671411        17.56398847412271-2.1006476994064096E-6i
5.843961831460014         5                        17.35804403848213-2.2656359086211227E-6i
5.946890941840184         4.802250979753403        17.141117463627605-2.4443904774525667E-6i
6.067998465830922         5                        16.959834264893814-2.5857366273358906E-6i
4.234861842787156         5                        19.945045477935178-4.831553323607733E-8i
4.063055239748159         4.811913901216528        19.976093782954408-2.1018389185656948E-8i
4.141078895191022         4.665804617055489        19.98438710746485-1.3727044539976261E-8i
4.022112820843905         4.6453666016534125       19.99144354152898-7.522888541265696E-9i
3.9241059957937288        4.701974040197757        19.99059618017225-8.267863931995066E-9i
4.756310846315618         4.55                     20
4.6164599140965805        4.55                     20
4.476567189426982         4.55                     20
4.336674464757383         4.55                     20
4.196781740087786         4.55                     20
4.887808936663978         4.45                     20
4.934644310266761         4.335678049128921        19.34983192588243-6.281511430556003E-7i
4.9919453007881796        4.228600684846197        18.792979508672968-1.1608422107600594E-6i
5.612897201692609         4.623134664747891        17.73652743339757-1.9694262100164703E-6i
5.508998316355745         4.466341272995664        17.8602405250009-1.884702696345089E-6i
5.3942635003347394        4.314614405773698        17.956268412831864-1.8337036222957694E-6i
5.063528639452537         4.129808355313784        18.325405140201326-1.6004716739335235E-6i
5.174029332100448         4.1488179553460185       18.14831666463488-1.7323424924909696E-6i
5.2919657856656865        4.216040023383861        18.03124521363281-1.800344350082526E-6i
6.304525257618053         5                        16.60672547496075-2.8620770696538923E-6i
6.189920836544797         4.772097904232644        16.73963514020926-2.762426477019634E-6i
5.827968980513138         4.5972287023224405       17.274920221972618-2.3485891011317374E-6i
6.037957580859711         4.6059854799384095       16.91165549929375-2.6361387979771318E-6i
6.444517997064196         4.729773210133166        16.39017025111218-3.031276466995061E-6i
6.594623575212973         5                        16.256214368105674-3.128548936304655E-6i
7.625144409765326         4.628511730808293        15.549174855065562-3.639359396418026E-6i
8                         5                        15.549022509839695-3.639097700852783E-6i
7.441339237686694         5                        15.655576907341795-3.5646958020115385E-6i
8                         4.411764705882353        15.43284175401717-3.719200566154443E-6i
6.7740685676401           4.6708837687754245       16.032980639135122-3.2970637154117537E-6i
6.965906997927629         5                        15.921993710832561-3.3746119236094703E-6i
7.202891645079418         4.599893960542163        15.70818192072395-3.5295629337743725E-6i
3.8697088800715935        5                        19.98460097709132-1.3538812889774351E-8i
3.7684079343477688        4.720146157310853        19.993954921153694-5.314839101870237E-9i
3.633910388385135         4.79875674635651         19.99484205183193-4.534870587956302E-9i
4.056889015418188         4.55                     20
3.9169962907485902        4.55                     20
3.7771035660789924        4.55                     20
3.637210841409394         4.55                     20
3.50463927266492          4.719313825088017        19.99761184278472-2.099669000312612E-9i
4.755792612389559         4.45                     20
4.814292464563157         4.334924208563962        19.487631913627386-5.125099572925201E-7i
4.877813988882177         4.216261050469096        18.93916406918096-1.049799355645137E-6i
4.946488205053551         4.110101871395784        18.468070242563673-1.50252131873045E-6i
5.022179034023275         4.028293214648231        18.101029096775854-1.8435390260524304E-6i
5.707625112159145         4.407587986474482        17.3667762331149-2.2962823789447477E-6i
5.5644081517160835        4.238413247768582        17.461242048412284-2.2536086508318356E-6i
5.414521368086479         4.169484570332187        17.665250460376893-2.1115360400601566E-6i
5.131794084213279         4.016785316727023        17.888222089246-2.010089866019178E-6i
5.299463530594175         4.040606301684243        17.641123981563087-2.1829691902408004E-6i
6.243209543926621         4.4969451050873905       16.550949406387925-2.921049865376529E-6i
5.98179760147381          4.361404708296167        16.840595843896324-2.7144097433147245E-6i
6.5395080753095876        4.372841240318787        16.130271278459674-3.239108635855216E-6i
7.481491166060524         4.130899987616946        15.379425501959645-3.759409824482977E-6i
8                         3.823529411764707        15.09682059424245-3.94408794243562E-6i
6.9388301266052705        4.245222868683789        15.715443353381078-3.5349813674483086E-6i
3.4125107178274003        5                        19.99685229052671-2.7674670429912073E-9i
3.3474926538386387        4.698312955540649        19.998767382785744
3.1716489712169373        4.770348672499539        19.999059254504647
3.2511662859160397        4.632927159822811        19.9994929151076
3.4973181167397964        4.55                     20
3.3574253920701977        4.55                     20
4.615951899130211         4.45                     20
4.68221543146964          4.3282457770200935       19.533821806623525-4.837754004880502E-7i
4.476074568853544         4.45                     20
4.546126087067965         4.32669651027116         19.571447368077127-4.6127481057251643E-7i
4.3361972385768786        4.45                     20
4.40573304989598          4.32866015622252         19.606047079832113-4.3992174979665204E-7i
4.196319908300211         4.45                     20
4.266466233197295         4.3252569122648525       19.61432118586583-4.4640450183042194E-7i
4.056442578023544         4.45                     20
4.130263313793142         4.3226694216397235       19.620144701195045-4.550910538329509E-7i
4.751080045370834         4.20388595291124         19.030287620471924-9.918799640602708E-7i
4.828433707275628         4.084374953630403        18.541265367720683-1.47224522053699E-6i
4.921547218702496         3.9777578446006054       18.097682661061103-1.8912895522700439E-6i
5.045208131177306         3.905738933841673        17.73217565569107-2.2080826315081858E-6i
5.74968042120349          4.159005322716151        17.014285083568012-2.6185263263872033E-6i
5.527168856469244         4.020488407799542        17.19294900962097-2.527809315960939E-6i
5.189340704205334         3.848190924281648        17.386646150862674-2.4875758173461273E-6i
5.367753511352488         3.8647466533513684       17.160249710993323-2.62799521798873E-6i
6.266053800256908         4.1367826313786065       16.259844039495466-3.1715855296843892E-6i
5.975533739637011         4.080562361982969        16.575799939504247-2.9584954617331876E-6i
7.523703438019693         3.5322658115176218       14.913458941514179-4.071294996019523E-6i
8                         3.2352941176470598       14.57271704393172-4.274025624408694E-6i
6.590921492331081         3.946320943322261        15.76460955120942-3.5309730881325377E-6i
7.044099813210913         3.750497311527156        15.28588117424498-3.845460154320532E-6i
7.524458656036556         2.946296779993728        14.299886343260445-4.450755194210463E-6i
8                         2.647058823529412        13.902068157879958-4.655338345851686E-6i
2.8710458156581584        5                        19.999516088929525
3.141722588758003         4.634611278656445        19.999645344073492
2.9906250765254363        4.669780560959878        19.99971270808618
2.7976108832789897        4.674973252393094        19.999843359868617
2.545825684134168         4.737782257300359        19.99990757680796
3.217532667400601         4.55                     20
3.9165652477468775        4.45                     20
3.9856069107877152        4.327266394401694        19.644211498079173-4.4188236962825355E-7i
3.7766879174702117        4.45                     20
3.8451443109466603        4.323914471773127        19.64218960452081-4.5992369317572996E-7i
3.6368105871935446        4.449999999999999        20
3.706903023931755         4.32114432230358         19.640128841846806-4.781679595511569E-7i
3.4969332569168787        4.45                     20
3.566070227618276         4.323445530330605        19.650856794925485-4.795047832422381E-7i
4.614855009131454         4.197322868019186        19.100659105004425-9.530755473369862E-7i
4.481926598324869         4.205950092741652        19.188892290051555-8.893834920162878E-7i
4.06452414142303          4.200739372062105        19.269155115825367-8.905711448814185E-7i
4.332357914839884         4.20735653553012         19.238449589306978-8.675818105751572E-7i
4.197951490863334         4.192819387388773        19.223786665076656-9.149442706288134E-7i
4.688869705300851         4.062186692141202        18.603753679310916-1.4587023358651336E-6i
4.782447858790661         3.931490995733026        18.117929136449117-1.9336116684304393E-6i
4.904526375894556         3.80654709835452         17.641329437464602-2.372846278419578E-6i
5.070458137347533         3.7121936707197283       17.217272856419395-2.7210682117029163E-6i
5.772398569246678         3.8802294116687586       16.59868306467345-3.001388416373713E-6i
5.531300547981292         3.778146662651305        16.762351734178562-2.9422166275253466E-6i
5.309724492750345         3.6188009784129025       16.73209071366344-3.079013928371917E-6i
6.141122031986612         3.7433564183511345       15.97623140561807-3.446073262471418E-6i
7.053114264871377         3.2082095502657113       14.731127577418826-4.227772038022189E-6i
6.593107992097994         3.4554940595697214       15.254222323113675-3.928800333546208E-6i
7.522014085453627         2.3516467120932116       13.551644624430038-4.858649106508862E-6i
8                         2.0588235294117663       13.125343007428661-5.033383246884253E-6i
7.042808097523377         2.638568332560877        14.028233267865295-4.669443565199234E-6i
2.2880173318534425        5                        19.999935537163243
2.2857299237649333        4.765193094324324        19.99995751747457
2.033464448453001         4.794392152268836        19.999980281782722
2.4035289170022747        4.634759126317592        19.999973232811136
2.287263439277354         4.630005213779038        19.999982869925624
2.147014938309709         4.663166622567544        19.999985210114318
1.9389573536057358        4.689409275033068        19.999991323301845
1.8231278179676167        4.762791302923087        19.999991760317027
1.803271427427081         4.694564653464718        19.999994449136977
3.077639942731002         4.55                     20
2.9377472180614035        4.55                     20
2.7978544933918057        4.55                     20
2.657961768722208         4.55                     20
2.51806904405261          4.55                     20
3.3570559266402116        4.449999999999999        20
3.4253431973139894        4.32409837760554         19.655752746602143-4.8827150711473E-7i
3.2171785963635458        4.45                     20
3.2876949269464433        4.324595219834801        19.659199878576942-4.984519615052947E-7i
3.9098802624491427        4.205702119511484        19.30195649443768-8.835226224515252E-7i
3.775222852445207         4.189368584889388        19.26822356958206-9.568657923719852E-7i
3.641482299674523         4.190135388697372        19.27985841112334-9.71960746534116E-7i
3.488730507087761         4.204101945781702        19.32594834065412-9.424965895044547E-7i
4.538912187254563         4.056972183029769        18.688713140559482-1.4217547065712849E-6i
4.404737237113291         4.107757615685631        18.9086341765099-1.22242041403892E-6i
3.986254089278865         4.098020034046644        18.985974405502077-1.2603913811921456E-6i
4.122545810573243         4.045911227701208        18.81019372039006-1.4307621175584484E-6i
4.264543131051339         4.059619122974533        18.811872237502154-1.379224466316965E-6i
4.613059781903468         3.90611837949089         18.185277207817588-1.940747133679446E-6i
4.727742929710963         3.72901141686866         17.599610314603243-2.5144991287333967E-6i
1.6923650543738296        4.768423860620013        19.99999453118292
4.879976086355297         3.5815808190048948       17.090882765366413-2.9640332745162815E-6i
5.09445811944272          3.512212216761047        16.729611751958384-3.204343566951167E-6i
5.684220674136354         3.507306909310564        16.11122793322321-3.488855270117519E-6i