% Model:              VLR_3_01V03.mph
% Version:            COMSOL 5.5.0.292
% Date:               Jun 21 2020, 19:06
% Dimension:          2
% Nodes:              2539
% Expressions:        1
% Description:        Electric potential
% Length unit:        cm
% x                       y                        V2 (V)
-1.552260654301598        -0.7234444574457287      9.323833619351868-2.5574775603343265E-5i
-1.2990322911339665       -0.750010070993209       9.99999081375284-2.9157956704786416E-5i
-1.409536313227687        -0.5130374076931423      9.999990813752852-2.9172232350845213E-5i
-1.4080145515287197       -0.9825562807120608      9.051718989435573-2.524685472035289E-5i
-1.149063052439335        -0.9641857194123948      9.999990813752824-2.9144976670480768E-5i
-1.653715385352272        -0.44365372818770643     9.59051412156949-2.5761819830009096E-5i
-1.4772109886979958       -0.2604759007468612      9.999990813752868-2.918738058792332E-5i
-1.706865460231377        -0.15019672327589137     9.861441822539767-2.5842446700295627E-5i
-1.5                      0                        9.999990813752872-2.9202971905981997E-5i
-1.7077273678048164       0.14934826616370178      10.138156563774588-2.584409526797574E-5i
-1.4772106593504082       0.26047776853607507      9.999990813752877-2.9218563351864128E-5i
-1.2177230443922005       -1.207730892247174       8.82098745562159-2.496472200697644E-5i
-0.9642335055494975       -1.1490229531109146      9.99999081375283-2.913369536548052E-5i
-0.9960828789130498       -1.4016826143786791      8.580227901700093-2.453171671925983E-5i
-0.7500124149660692       -1.2990309378135554      9.999990813752829-2.9124472065484702E-5i
-0.7428702251814447       -1.5621295273628049      8.32578823300142-2.3969954516393538E-5i
-0.5130398575996976       -1.4095354215180553      9.999990813752822-2.9117631706654802E-5i
-1.6538665553413938       0.44460613649861525      10.410961539407564-2.5794113308562498E-5i
-1.4095354215180553       0.5130398575996976       9.999990813752888-2.9233711667981307E-5i
-1.5496859461349577       0.7243876121274141       10.672040794976118-2.566678881531859E-5i
-1.2990309378135554       0.7500124149660692       9.999990813752877-2.9247987397379764E-5i
-0.46015988802563         -1.6639651806457074      8.209081308575469-2.3748140571936497E-5i
-0.26047776853607507      -1.4772106593504082      9.999990813752802-2.9113422084962444E-5i
-1.4004948484752777       0.9813919215610145       10.922943502112396-2.5443525127923022E-5i
-1.1490229531109146       0.9642335055494975       9.999990813752868-2.9260970288206346E-5i
-1.211187264538621        1.2107724481373232       11.171326170924006-2.5106311348274144E-5i
-0.9641857194123948       1.149063052439335        9.999990813752863-2.9272251338407908E-5i
-0.16496871429487864      -1.7103800869001526      8.196005977025278-2.37651548927048E-5i
0                         -1.5                     9.999990813752786-2.911199342763157E-5i
-0.9793823959034933       1.403268078608687        11.378655397001827-2.4798317773734056E-5i
-0.750010070993209        1.2990322911339665       9.999990813752854-2.9281472394096845E-5i
0.1349620297495264        -1.7086182894853001      8.226718004193899-2.385840214919292E-5i
0.2604759007468612        -1.4772109886979958      9.999990813752763-2.9113422020489214E-5i
-0.718174373405812        1.5534042585606846       11.557568319217596-2.446996845358046E-5i
-0.5130374076931423       1.409536313227687        9.999990813752826-2.9288312813855858E-5i
0.4328101096863419        -1.6550232483674112      8.318421166972781-2.4081498756810827E-5i
0.5130374076931423        -1.409536313227687       9.999990813752756-2.9117631669997324E-5i
-0.4345692480943007       1.6535402042332048       11.673422728125898-2.4245744181074693E-5i
-0.2604759007468612       1.4772109886979958       9.999990813752788-2.929252244660948E-5i
0.7167542940646534        -1.5525132254805898      8.451711869271817-2.4366648372904493E-5i
0.750010070993209         -1.2990322911339665      9.999990813752733-2.9124472103732366E-5i
-0.1377422689895256       1.7077747338458646       11.768194504257673-2.4016973133974754E-5i
0                         1.5                      9.999990813752763-2.9293951035151254E-5i
0.976967514593686         -1.4015705880469354      8.637722877565396-2.4731753358688936E-5i
0.9641857194123948        -1.149063052439335       9.999990813752708-2.913369314449476E-5i
0.2604733176110247        1.4772114441787627       9.999990813752754-2.9292522428067647E-5i
0.161706107764826         1.7076143213971688       11.780495025916212-2.3978192154965933E-5i
1.2068054419300163        -1.209069630792634       8.849552287695134-2.5078508304937742E-5i
1.1490229531109146        -0.9642335055494975      9.999990813752673-2.9144974161543378E-5i
0.5130308300018143        1.4095387073321717       9.999990813752762-2.92883129145918E-5i
0.4574637222492577        1.656200797241926        11.729996668358552-2.406908550453402E-5i
1.3997257928581008        -0.9814775745769219      9.07901404590764-2.5367786248896867E-5i
1.2990309378135554        -0.7500124149660692      9.999990813752643-2.915795706655962E-5i
0.7250194436934774        1.538179619409778        11.475484311948351-2.4715807256282734E-5i
0.7500003944253057        1.2990378779550218       9.999990813752762-2.9281472884042738E-5i
1.5504777024295635        -0.7259043186362496      9.322960617193274-2.558167032099723E-5i
1.4095354215180553        -0.5130398575996976      9.999990813752637-2.917223278921599E-5i
0.9752869957997262        1.3919387213327392       11.305039487273959-2.5033442179252265E-5i
0.9641816539097096        1.149066463814838        9.999990813752762-2.9272251894310088E-5i
1.6551938935266193        -0.445160144856996       9.586263902476006-2.5734047407703825E-5i
1.4772106593504082        -0.26047776853607507     9.999990813752655-2.918738110935125E-5i
1.2078147999459277        1.2092085191280761       11.154192919956152-2.5168883111872092E-5i
1.149066861522912         0.964181179939686        9.999990813752751-2.9260967587423288E-5i
1.7066175656999305        -0.1490584237095729      9.862688706141173-2.584772064140098E-5i
1.5                       0                        9.999990813752682-2.9202972544043568E-5i
1.7054671235537955        0.15011933095501656      10.137736390354396-2.5875943784807584E-5i
1.4772116647960043        0.2604720664305813       9.99999081375269-2.9218563625612572E-5i
1.3969406173172643        0.9800574769493366       10.908522799525754-2.5505046110720674E-5i
1.2990382497578632        0.7499997504439765       9.999990813752714-2.9247987190564144E-5i
1.5462471130282491        0.7235450121047181       10.662239672589473-2.5721330032479566E-5i
1.409539002854417         0.5130300180614935       9.999990813752703-2.9233711686246142E-5i
1.6543523455932174        0.44642185293537856      10.414162383495581-2.5779282339895456E-5i
-0.9965377364775745       -0.5119901962187896      9.99999081375301-2.9167810017704967E-5i
-1.2008663059005218       -0.49791577134374276     9.999990813752845-2.9168860212759577E-5i
-1.0807815042536755       -0.722434315397021       9.999990813752834-2.91533793900405E-5i
-1.2748903559257052       -0.2542726496649377      9.999990813752865-2.9185578410365556E-5i
-1.0319755508591002       -0.2986993336941238      9.99999081375305-2.91824723031816E-5i
-1.127842537973944        -0.10191755939636227     9.99999081375302-2.919598575091827E-5i
-1.3                      0                        9.99999081375287-2.9202971909092577E-5i
-0.9192376674108731       -0.9192399636727167      9.999990813752827-2.9139718275861027E-5i
-0.8319228040530704       -0.666498582512621       9.999990813753037-2.9157106634430055E-5i
-0.7189976595822637       -0.8618054782722095      9.999990813752987-2.9143575071257824E-5i
-0.7224316832899383       -1.080783263646725       9.99999081375283-2.9128417792534482E-5i
-1.0664996676627645       0.10472812591542703      9.99999081375306-2.9210155891700885E-5i
-1.2748902800748012       0.25427302997131845      9.999990813752877-2.922036545667987E-5i
-1.062896677181684        0.3387977857500095       9.999990813753028-2.9226216272876748E-5i
-1.2008674665427264       0.49791297211385643      9.999990813752888-2.9237083496571722E-5i
-0.49791297211385643      -1.2008674665427264      9.999990813752822-2.9119952714604195E-5i
-0.510399172809512        -0.9339474656970057      9.999990813753023-2.91384907335914E-5i
-0.3309785191594261       -1.0518819784006919      9.999990813752984-2.9130250550764866E-5i
-0.25427302997131845      -1.2748902800748012      9.999990813752797-2.9114701522681325E-5i
0                         -1.3                     9.999990813752778-2.9112909736258316E-5i
-0.10538155234965872      -1.0659210831003534      9.999990813752992-2.9129231869277544E-5i
-1.080783263646725        0.7224316832899383       9.999990813752877-2.9252564422244034E-5i
-0.9395818995731745       0.5163281894979804       9.99999081375306-2.9238454147099054E-5i
-0.8531621289884193       0.7147457534798374       9.99999081375303-2.925215337935127E-5i
-0.9192399636727167       0.9192376674108731       9.999990813752868-2.9266225691859208E-5i
0.09303996630995835       -1.109229376845453       9.999990813752952-2.912622054668842E-5i
0.2542726496649377        -1.2748903559257052      9.999990813752756-2.9114701627277832E-5i
-0.722434315397021        1.0807815042536755       9.999990813752856-2.9277526318833416E-5i
-0.6753386092608932       0.8357571304674056       9.999990813753056-2.926058957805348E-5i
-0.5126260877670702       0.9848384949288346       9.999990813753012-2.9270978679233713E-5i
-0.49791577134374276      1.2008663059005218       9.99999081375283-2.9285991482560588E-5i
0.49791577134374276       -1.2008663059005218      9.99999081375275-2.9119953007451048E-5i
0.30441895262960145       -1.0265167154650547      9.999990813752975-2.9132004287509687E-5i
-0.2542726496649377       1.2748903559257052       9.999990813752795-2.9291242836515085E-5i
-0.3053391794608046       1.0335196511967168       9.999990813753014-2.9274426042799233E-5i
0.5084580515760682        -0.9864169887835698      9.999990813752923-2.9134854609568374E-5i
0.722434315397021         -1.0807815042536755      9.999990813752728-2.9128418178329583E-5i
-0.10393032726764048      1.1209472354201107       9.999990813752953-2.9280537613840203E-5i
0                         1.3                      9.999990813752754-2.929303469892499E-5i
0.9192399636727167        -0.9192376674108731      9.999990813752689-2.913971878984983E-5i
0.6368844629499694        -0.8395735824827906      9.999990813752957-2.9145074082094005E-5i
0.2542774865505297        1.274889391215389        9.999990813752756-2.9291242795335057E-5i
0.10931980786731789       1.064593217881322        9.999990813752985-2.9276619885909488E-5i
1.080783263646725         -0.7224316832899383      9.99999081375265-2.9153380041768963E-5i
0.8095056677279252        -0.6838518544522508      9.999990813752921-2.915590098281138E-5i
0.3316141418675122        1.0762888869531588       9.999990813752934-2.9277388457806636E-5i
0.4979217638008312        1.2008638212276481       9.999990813752754-2.928599133691845E-5i
1.2008674665427264        -0.49791297211385643     9.999990813752637-2.916886095940842E-5i
0.9467820609760702        -0.5052548130729154      9.99999081375289-2.916825460636326E-5i
0.7224441620852138        1.0807749222983452       9.999990813752763-2.927752603201521E-5i
0.506476331786558         0.9410708427980866       9.999990813752973-2.9267948617465415E-5i
1.0596055206129462        -0.3394856756542466      9.999990813752852-2.9179680046263344E-5i
1.2748902800748012        -0.25427302997131845     9.999990813752653-2.9185578999388025E-5i
0.7153895190447785        0.8566739894903068       9.99999081375293-2.926201651858633E-5i
0.9192416125180489        0.9192360185584644       9.999990813752758-2.9266225956123696E-5i
1.0807768060422045        0.7224413440004743       9.999990813752726-2.92525655982312E-5i
0.8313272910502476        0.6678774959315521       9.999990813752943-2.9248933155069463E-5i
0.9847230645340913        0.5050330166939598       9.999990813752895-2.9237660781416158E-5i
1.2008648344332253        0.4979193201932035       9.999990813752701-2.923708451899153E-5i
1.3                       0                        9.999990813752671-2.9202972544789255E-5i
1.0610299183128573        -0.12096244923492275     9.99999081375289-2.9194674393588546E-5i
1.1000394500664892        0.08964047751280829      9.999990813752865-2.9209119131606263E-5i
1.2748898793617054        0.2542750390838555       9.999990813752696-2.9220366219039504E-5i
1.0224128903168839        0.29599006887008583      9.999990813752909-2.9223288416615506E-5i
-5.135141345260304        -3.183172678613971       1.1166192165137077-5.845773173978204E-7i
-5.048350356480576        -3.167068217240236       0.7792525586969642-4.07378892956224E-7i
-5.120714245373296        -3.099693863180341       0.9819671676954297-5.255144123628499E-7i
-5.099194101091518        -3.2511058527979997      1.0755192966182836-5.550228334861993E-7i
-5.001043604488205        -3.2606355011092365      0.8267926566258798-4.235599262909797E-7i
-4.939202554211195        -3.1610910312153564      0.45139028972091483-2.3268199210952077E-7i
-5                        -3.05                    0
-5.112154662726014        -3.000204125917428       0.9364496516407342-5.218948435490781E-7i
-5.194483891286156        -3.246804639967034       1.3570646080577813-7.02043326158641E-7i
-5.213133815142219        -3.1513609355441616      1.3850804163222035-7.301443187952123E-7i
-5.219737114616886        -3.0538173468500434      1.433728054974847-7.746838910739764E-7i
-7.619002805990894        -4.597637000988644       3.563926699390456-1.6444376776175083E-6i
-8                        -4.411764705882353       3.654935534656966-1.6817408774982827E-6i
-8                        -5                       3.559627125058304-1.6425172839658997E-6i
-5.161955405800733        -3.327014032524763       1.3174476704294886-6.730448102761409E-7i
-5.24821527894247         -3.328457525392978       1.5389565419479039-7.858424522717749E-7i
-5.067635791987091        -3.3635499414795276      1.124331402008677-5.706306244643281E-7i
-4.883910634516916        -3.271382300000161       0.6198065707721127-3.142105575491429E-7i
-4.967968188641937        -3.3496156639221413      0.8998403886240881-4.5549101650734673E-7i
-7.406567705706927        -5                       3.4633733845791226-1.6025498271119343E-6i
-4.814072906560321        -3.1688854201784737      0.308396243467473-1.563301885133614E-7i
-4.887808936663978        -3.05                    0
-5                        -2.95                    0
-5.216004535167777        -2.950557338521652       1.5459104630060148-8.622431141724664E-7i
-5.118793797810839        -2.8989547166405383      1.2168603465280314-7.087712089137707E-7i
-5.312530423643681        -3.2347898842942224      1.7012178006460792-8.792610742981871E-7i
-7.576680320415428        -4.104671764027654       3.730078200542252-1.7133120458299838E-6i
-8                        -3.823529411764707       3.9447318755771446-1.7986757924283322E-6i
-5.327785202622831        -3.121557065713345       1.7839181720409947-9.398857756915337E-7i
-5.321131974967164        -3.0123051727642314      1.8582034945432857-1.002582342362708E-6i
-7.111766003832118        -4.47174853503321        3.4173586312638196-1.5845344337795228E-6i
-5.372056446942942        -3.3775393504146463      1.8419974145525053-9.318660001462232E-7i
-4.761509782189803        -3.300040433725267       0.5182105010269918-2.5998588094781983E-7i
-5.20005023193799         -3.4561397361072292      1.4803346696306185-7.450114292266111E-7i
-5.016872827346368        -3.4835492600807205      1.1429018552971186-5.726795034370838E-7i
-4.870637679803702        -3.410722868156584       0.8226489359717336-4.124754235137755E-7i
-6.813135414064489        -5                       3.1804667915176474-1.4829899954421284E-6i
-4.686071676264805        -3.176262613483986       0.2414905196998696-1.210691784920647E-7i
-4.620961795701317        -3.3123320813657173      0.42061132508644145-2.0935072977692843E-7i
-4.755792612389566        -3.05                    0
-4.548141061617621        -3.176317745634458       0.1885712793806995-9.378797324429833E-8i
-4.482578343176616        -3.2957658991609096      0.3221881941703127-1.5952211097304402E-7i
-4.407208147122166        -3.1735463064248606      0.14978530626533756-7.407273626165765E-8i
-4.334202434575737        -3.295546154170961       0.26490727898267746-1.3056504604359312E-7i
-4.266055599190017        -3.1736505993552035      0.12504708280800528-6.158105201997702E-8i
-4.888041601602852        -2.95                    0
-4.9353850045533045       -2.8335911689093414      0.8289386491045355-5.446258196642772E-7i
-5.3123551901864605       -2.8878095572870013      2.030831405459711-1.1292897864668534E-6i
-5.044659716557285        -2.8253462973257046      1.2010273516850007-7.4210400597418E-7i
-5.2120061151017865       -2.8500588566082783      1.764626414427766-1.0152580200201357E-6i
-5.134752622747733        -2.8104795384922996      1.5998876221760296-9.549253019177313E-7i
-5.4477073144129795       -3.216804379962168       2.068199197177434-1.0631625745685395E-6i
-5.6094686562884535       -3.3764598252883715      2.3419960407952662-1.1709626016301267E-6i
-7.114083095377115        -3.845854182060524       3.6993970779714673-1.7066426119266123E-6i
-6.700027311426602        -4.079699790410581       3.307762221102558-1.544912580550109E-6i
-7.547026529713584        -3.5401193764262997      4.095200082277764-1.8611455236848906E-6i
-8                        -3.2352941176470598      4.436315213876519-1.988514125840362E-6i
-5.452470572954058        -3.060264674865241       2.2041486635550114-1.1591950569397186E-6i
-5.39950963127895         -2.944129390107674       2.2041682222588537-1.1918073050618598E-6i
-6.24615472624887         -3.645473011615922       3.1242528459259096-1.4885835629968186E-6i
-6.280737408460875        -4.010413658184879       2.9720921627405557-1.4064322718453428E-6i
-5.906261640475499        -3.6745792704997213      2.6820288268409724-1.2976781316002508E-6i
-6.502860787513182        -4.507910659515894       3.015207083611348-1.4142877396694386E-6i
-5.414366776432081        -3.6525847514429084      1.92471758760264-9.499566368110028E-7i
-4.713857793803708        -3.4562060413798488      0.6890845971269587-3.425445401862616E-7i
-5.108192663352322        -3.69617989568689        1.4339743147272894-7.086261903849836E-7i
-4.860913231483446        -3.6001934423367805      1.0122301910069327-5.017757017757597E-7i
-4.195429694179967        -3.300721133362113       0.22945344041735657-1.1272447962097232E-7i
-4.126977915015427        -3.1721067350206322      0.10513417933837609-5.161617270865994E-8i
-4.058081586929798        -3.291656911867736       0.19071526093463767-9.347111736550784E-8i
-3.984354125684851        -3.173284091187637       0.0911301065694165-4.463409739663336E-8i
-4.543551930360913        -3.4490357302474286      0.5353761534052207-2.64732330107845E-7i
-4.405477489428128        -3.4121319802905385      0.4132606748571185-2.0373116000501503E-7i
-4.269428003783316        -3.4327480116116353      0.36988524649387405-1.8174050689745184E-7i
-3.90516150116026         -3.3018221678107404      0.16986711840956456-8.307731463549757E-8i
-6.221968789466947        -5                       2.734744347218658-1.2889324131038956E-6i
-3.841347066451085        -3.177184687116542       0.0814243491432106-3.980746981318107E-8i
-3.7738872983265934       -3.3098492768696737      0.15425475993740542-7.533665176190976E-8i
-3.7072428700222475       -3.17588356911059        0.07088455507979029-3.4608807516841634E-8i
-3.6455991278242577       -3.2943981823137056      0.12891737576633114-6.289768657183844E-8i
-4.615951899130199        -3.05                    0
-4.476074568853527        -3.05                    0
-4.336197238576853        -3.05                    0
-4.196319908300181        -3.05                    0
-4.056442578023507        -3.05                    0
-3.916565247746834        -3.05                    0
-4.756310846315618        -2.95                    0
-4.814468520960421        -2.834020747849687       0.6590102278965025-4.666313483382888E-7i
-4.616459914096865        -2.95                    0
-4.68528175238141         -2.8289106035609404      0.602818151947966-4.6009795534815075E-7i
-4.87734420728848         -2.7140996445066707      1.359306118363449-9.398726037110713E-7i
-5.432188213596251        -2.8202972796596746      2.5197681675826655-1.3842857559486743E-6i
-4.98975626939159         -2.7206593971700537      1.5445204082796744-1.0060884154687652E-6i
-5.314304760083927        -2.7735219311864694      2.2994782855973064-1.3098610963300596E-6i
-5.096168047160958        -2.7315691792756653      1.7784683989989263-1.100269872300126E-6i
-5.204410399352158        -2.741922099883305       2.064134200679543-1.2230853025796986E-6i
-5.632843242272216        -3.1373958556133155      2.5612298762840697-1.3077808308522809E-6i
-5.894911243335028        -3.2532675512632308      2.9422504668202154-1.453614804706927E-6i
-6.587087469594543        -3.6096138432815836      3.4926030929777-1.638262480460669E-6i
-6.218523154152893        -3.3536636421075507      3.3116860842874245-1.5905282133977644E-6i
-7.05993604269343         -3.2725686296595815      4.133595461293216-1.892710691275416E-6i
-7.530595970708659        -2.95683079243662        4.676542285790862-2.0847999634413765E-6i
-8                        -2.647058823529412       5.129973462247078-2.236246868765811E-6i
-5.576537978944186        -2.9143973234394878      2.711278850569855-1.4313411056858514E-6i
-4.94379423536546         -2.603510503400961       1.9684987847052569-1.3347231993227529E-6i
-5.6864091442646165       -4.052421908932885       2.285153148276432-1.1004343297729728E-6i
-5.9345980552786575       -4.516150798125048       2.499430044569744-1.1870525082200076E-6i
-5.263791285337929        -3.968275974927772       1.736217163032524-8.457979697166452E-7i
-5.041619652328673        -3.894465618667976       1.4257381640654696-6.979705302373633E-7i
-4.643803783522424        -3.628011703933974       0.7950233105563077-3.9198862792252984E-7i
-4.834278330142093        -3.825353661822125       1.1400904121041775-5.595377566013481E-7i
-4.117832625585498        -3.4386183881465104      0.3182561705194252-1.5596000205412774E-7i
-3.9847200733438157       -3.4040135331656343      0.25473945865677045-1.2464100864346397E-7i
-4.397626735244053        -3.5875641062617545      0.5689942398087928-2.7955541383691083E-7i
-4.195313857091088        -3.556321730521779       0.4361208592801546-2.1369356589021306E-7i
-3.8491501788189444       -3.455846473312904       0.25371133652172567-1.2392211888140834E-7i
-3.701110597761934        -3.434934761969863       0.21027819341437495-1.0259217825077224E-7i
-3.575352798525741        -3.3980768999988054      0.17045176957615804-8.310084640297002E-8i
-5.633047382546035        -5                       2.1788823768502863-1.0383742900747428E-6i
-3.4988884443082133       -3.297130981804691       0.1141489864294154-5.5638376258753536E-8i
-3.5691252228678985       -3.1738692683636196      0.061407927576455794-2.994983306610018E-8i
-3.776687917470161        -3.05                    0
-3.6368105871934877       -3.05                    0
-4.4765671894272625       -2.95                    0
-4.548781732170915        -2.8272654619917237      0.56148240316217-4.619281027647543E-7i
-4.752940016663753        -2.7067285599605317      1.240579855345545-9.179815028991719E-7i
-4.619535452321062        -2.7032217670412755      1.1535071704673374-9.168207004886093E-7i
-7.526586013154269        -2.3668390479092416      5.471231263396766-2.363128106599385E-6i
-8                        -2.0588235294117663      6.00942314100118-2.512202925616888E-6i
-4.827408352275194        -2.5862471613065123      1.8679471001099426-1.3428858716114258E-6i
-5.542838376633375        -2.7462864948474257      2.934104039101391-1.5920657882135124E-6i
-5.426941310899485        -2.6910845111536443      2.7915933314389103-1.5666410476399233E-6i
-5.064888915426784        -2.617908572517962       2.1466417267568434-1.3751245834425373E-6i
-5.298319487109692        -2.6489396267177194      2.5943779167225336-1.5183949331652994E-6i
-5.176731809035831        -2.6218258942315447      2.386866508252919-1.4617108798832155E-6i
-5.84499101096725         -2.962074989539479       3.1809839777106315-1.6099707105609843E-6i
-6.097561778585094        -3.0564346872388635      3.456887471218768-1.6923741045061494E-6i
-6.523445136252592        -3.0042431261629274      4.017715723227448-1.8939597017243807E-6i
-7.050027238690676        -2.6791047594481228      4.835382879451486-2.176798876793318E-6i
-5.736880091800763        -2.7279461530543303      3.3549811218638683-1.7574307207940597E-6i
-5.017556529744814        -2.5228931444806735      2.418043794741503-1.6014754904901278E-6i
-4.916045237923663        -2.4764297794807804      2.436880149777403-1.6963230069061582E-6i
-5.319539215208882        -4.441319890518911       1.8517112361493344-8.906183158363255E-7i
-4.9731089513542726       -4.102207368578296       1.4152766023776069-6.883923388281383E-7i
-4.532628245570356        -3.83387835976767        0.8484662552265404-4.15375071443449E-7i
-4.6880184378236605       -4.032083585794215       1.0934505728555695-5.331989704580244E-7i
-3.9987428898361856       -3.594899682388751       0.3818898050373614-1.8661977555312045E-7i
-4.209311863810573        -3.783967609559923       0.5938944310558475-2.901904850791052E-7i
-3.4466546566311513       -3.440166755752054       0.16963464411690288-8.263596902853694E-8i
-3.363587180268895        -3.3085615017331023      0.10593111560425685-5.159598447690488E-8i
-3.580584635942415        -3.5413224214469485      0.2369390763363645-1.154670351383421E-7i
-3.772318340047917        -3.6102042507827967      0.3167965559234929-1.545135211791045E-7i
-3.2877193180466535       -3.448025419534967       0.15070967108414027-7.33670047041077E-8i
-5.044125975625123        -5                       1.5989549538207564-7.687457680664123E-7i
-3.225342293496131        -3.2960489972496383      0.08956846256427871-4.3602236028771676E-8i
-3.14872330000884         -3.4004042073208702      0.11850879717108145-5.766884539250602E-8i
-3.4292791297873064       -3.1758044839204573      0.055024922997852325-2.681380882417699E-8i
-3.29008114538507         -3.1752890519559838      0.048527252615223476-2.363168504722042E-8i
-3.496933256916815        -3.05                    0
-4.336674464757661        -2.95                    0
-4.4095066162387715       -2.8259008575520905      0.5364330502883163-4.750638455361015E-7i
-4.484347448163665        -2.706517544053731       1.0719551694043432-9.145096086978735E-7i
-4.196781740088059        -2.95                    0
-4.269133839045938        -2.822698406606438       0.5290042906956955-5.035394220919415E-7i
-4.056889015418456        -2.95                    0
-4.128109847263144        -2.82029180102103        0.5242050451073074-5.355562850546647E-7i
-3.916996290748854        -2.95                    0
-3.987771921324992        -2.8192999551095252      0.5180420617405056-5.669990820740973E-7i
-3.7771035660792514       -2.95                    0
-3.8500651866211286       -2.820918316811292       0.5049879472882063-5.905201915111703E-7i
-3.637210841409649        -2.95                    0
-3.708574225301696        -2.8232790914015466      0.4915479695928405-6.143267141821371E-7i
-7.527468951146645        -1.7759839251272975      6.446204619184608-2.6543304291913264E-6i
-8                        -1.4705882352941193      7.041138043994688-2.7748076253602674E-6i
-4.692973904039122        -2.574322254233316       1.7737798165064318-1.3653918698442118E-6i
-4.552374044319767        -2.5760133932501788      1.6610086890478437-1.3728767260517347E-6i
-7.051219921730468        -2.0833781236173476      5.76527326540488-2.5144309000886482E-6i
-4.7808263054278335       -2.4428188394608354      2.4009831878462546-1.783959719047384E-6i
-5.562544624371656        -2.5764061128075033      3.339503581477945-1.8380904698174322E-6i
-5.397872513554422        -2.571812028631125       3.0265256070286273-1.739178360964906E-6i
-5.127311852764764        -2.4963286851129673      2.7120502094317165-1.7226840539479026E-6i
-5.26965612973233         -2.4934712952202274      2.9912676294458898-1.8053859542293846E-6i
-6.088372362636003        -2.668706386187764       3.995657240420591-1.984256189731243E-6i
-6.562607907415519        -2.389609935217027       4.949070857602522-2.305688769232251E-6i
-5.757904753901095        -2.4271696608646693      3.991137948769769-2.1231444245548462E-6i
-5.034424875124238        -2.3866783529752835      2.940100208330817-1.959894216194198E-6i
-4.892261129604442        -2.316430675260417       3.0043809364366285-2.1376883490775893E-6i
-4.705008987722529        -4.448808435388618       1.239387098981722-5.999441329971525E-7i
-4.376363957824626        -4.100806141169402       0.8631806785848574-4.2021474265047405E-7i
-3.906530105493423        -3.823961055358173       0.46818014348156894-2.2820751828934897E-7i
-4.0826781957631795       -4.0312626394177595      0.6459749050243633-3.1452070587323147E-7i
-3.386878406099778        -3.618304490319647       0.22869011817509285-1.1132553413363138E-7i