% Model:              VLR_3_01V03.mph
% Version:            COMSOL 5.5.0.292
% Date:               Jun 21 2020, 19:07
% Dimension:          2
% Nodes:              1174
% Expressions:        1
% Description:        Electric potential
% Length unit:        cm
% x                       y                        V2 (V)
-1.403535348135416        -0.9826986047501887      9.768491944617798-6.905050499481616E-5i
-1.149063052439335        -0.9641857194123948      9.999961483469326-7.208456539707659E-5i
-1.2990322911339665       -0.750010070993209       9.999961483469326-7.208835474549876E-5i
-1.5510187119923209       -0.7241193734646466      9.840777645481303-6.932603341867655E-5i
-1.409536313227687        -0.5130374076931423      9.999961483469324-7.209245602515973E-5i
-1.2129717005727843       -1.2114403481133835      9.691012159776955-6.870497288145724E-5i
-0.9642335055494975       -1.1490229531109146      9.99996148346932-7.208120756546971E-5i
-0.9850103935519012       -1.4066012878202867      9.60644258101388-6.82676889400657E-5i
-0.7500124149660692       -1.2990309378135554      9.999961483469304-7.207840496341619E-5i
-0.7243727955276784       -1.5553000095412024      9.53262522393291-6.789008158592054E-5i
-0.5130398575996976       -1.4095354215180553      9.99996148346931-7.20762857969879E-5i
-1.6537448551545537       -0.4452404112770388      9.90602018463649-6.948663413403412E-5i
-1.4772109886979958       -0.2604759007468612      9.99996148346935-7.209675892633014E-5i
-1.7071084882984058       -0.15145686495106675     9.96858939682493-6.956177549216938E-5i
-1.5                      0                        9.999961483469368-7.210116192610331E-5i
-1.7084776292106072       0.14861057936589128      10.030879890449276-6.955378532035745E-5i
-1.4772106593504082       0.26047776853607507      9.999961483469392-7.210556494702845E-5i
-0.4437086920141479       -1.6542860716562684      9.477934038224591-6.760998448703719E-5i
-0.26047776853607507      -1.4772106593504082      9.999961483469297-7.207496168445985E-5i
-1.6549766499659284       0.443892258746717        10.09390857445109-6.948926836397136E-5i
-1.4095354215180553       0.5130398575996976       9.999961483469395-7.210986782769519E-5i
-0.1510121656341592       -1.7045062785719427      9.447147886789152-6.744731939428376E-5i
0                         -1.5                     9.999961483469287-7.207450852312055E-5i
-1.5519654672396666       0.7249003700135762       10.160058675883574-6.93302249495718E-5i
-1.2990309378135554       0.7500124149660692       9.99996148346942-7.21139690559402E-5i
0.14636756980544618       -1.7068150963215594      9.44214153892124-6.740637122904349E-5i
0.2604759007468612        -1.4772109886979958      9.999961483469304-7.207496145367549E-5i
-1.403690500888047        0.9847018353434757       10.233122860580144-6.905769503983122E-5i
-1.1490229531109146       0.9642335055494975       9.999961483469452-7.211775914875451E-5i
0.4429348460075852        -1.6578227710025724      9.470184272500914-6.754478570257565E-5i
0.5130374076931423        -1.409536313227687       9.99996148346932-7.207628537919108E-5i
-1.2105946125363325       1.2124275386471441       10.30822313392924-6.874835168721314E-5i
-0.9641857194123948       1.149063052439335        9.999961483469505-7.212111677024438E-5i
0.7221611897758463        -1.5521420836308781      9.540197878420067-6.795831702920579E-5i
0.750010070993209         -1.2990322911339665      9.999961483469322-7.207840438693532E-5i
-0.9827230600444933       1.4055207099629388       10.390088903717574-6.83391145051243E-5i
-0.750010070993209        1.2990322911339665       9.999961483469562-7.212391854244535E-5i
0.9800623677740001        -1.4033535666977897      9.615201341818116-6.835500307413987E-5i
0.9641857194123948        -1.149063052439335       9.999961483469344-7.208120615970633E-5i
-0.7245086379743805       1.5535541819146605       10.463995368611423-6.796012851290218E-5i
-0.5130374076931423       1.409536313227687        9.999961483469606-7.2126037562235E-5i
1.2087048990545184        -1.2124765875507362      9.693092582073236-6.873390104308729E-5i
1.1490229531109146        -0.9642335055494975      9.999961483469361-7.208456378727378E-5i
-0.4450924591992937       1.6583574048693774       10.531893158560893-6.756946612028995E-5i
-0.2604759007468612       1.4772109886979958       9.999961483469649-7.212736150466229E-5i
1.4023710510050122        -0.9845242245501808      9.767841283506412-6.904699021885262E-5i
1.2990309378135554        -0.7500124149660692      9.9999614834694-7.208835389207827E-5i
-0.14968676091764965      1.7092289320866043       10.564276629139284-6.739725113138905E-5i
0                         1.5                      9.999961483469676-7.212781446960738E-5i
1.5502941494082503        -0.7241901534051318      9.841117284535796-6.933331104134288E-5i
1.4095354215180553        -0.5130398575996976      9.999961483469441-7.209245513643792E-5i
0.15060159420956493       1.7113148185574492       10.56955138933936-6.735306404191915E-5i
0.2604733176110247        1.4772114441787627       9.999961483469686-7.212736134190694E-5i
1.6528486627877335        -0.44414318938649516     9.906658414482338-6.950007040116842E-5i
1.4772106593504082        -0.26047776853607507     9.999961483469452-7.209675803278255E-5i
0.44526159280748034       1.6532991526981338       10.520421570390313-6.766661970343486E-5i
0.5130308300018143        1.4095387073321717       9.999961483469685-7.21260372890654E-5i
0.7239425903514096        1.5512099329309823       10.459042543248733-6.800398599326157E-5i
0.7500003944253057        1.2990378779550218       9.999961483469658-7.212391820159332E-5i
1.7099380786151819        -0.1500161230155815      9.968564501685307-6.953231625608389E-5i
1.5                       0                        9.999961483469468-7.210116107745918E-5i
1.705547120084526         0.14875304654047525      10.030564688211795-6.958573750645022E-5i
1.4772116647960043        0.2604720664305813       9.999961483469498-7.21055640287217E-5i
1.6537031542372378        0.4445554937352897       10.09367506245276-6.950088921906039E-5i
1.409539002854417         0.5130300180614935       9.999961483469532-7.210986688709325E-5i
0.9805706197112867        1.4013331215950204       10.38197422346329-6.841680859393246E-5i
0.9641816539097096        1.149066463814838        9.999961483469631-7.212111628837961E-5i
1.5483970600894963        0.7220049954191233       10.156676646646881-6.938523214014408E-5i
1.2990382497578632        0.7499997504439765       9.999961483469539-7.211396812252516E-5i
1.2124313688824433        1.2125635461788675       10.309776631055113-6.872929432429912E-5i
1.149066861522912         0.964181179939686        9.999961483469592-7.211775757200594E-5i
1.401082926171194         0.9792770104123          10.227076872264961-6.913022986065067E-5i
-0.9965377364775745       -0.5119901962187896      9.9999614834695-7.209110833460081E-5i
-1.2008663059005218       -0.49791577134374276     9.999961483469322-7.20914758455344E-5i
-1.0807815042536755       -0.722434315397021       9.999961483469328-7.208700520794645E-5i
-0.9192376674108731       -0.9192399636727167      9.999961483469328-7.208298745777687E-5i
-0.8319228040530704       -0.666498582512621       9.999961483469546-7.208797556563248E-5i
-0.7189976595822637       -0.8618054782722095      9.999961483469482-7.208401286946333E-5i
-0.7224316832899383       -1.080783263646725       9.999961483469312-7.207959370411462E-5i
-1.2748903559257052       -0.2542726496649377      9.99996148346935-7.209623995492015E-5i
-1.0319755508591002       -0.2986993336941238      9.999961483469555-7.209531134455705E-5i
-1.127842537973944        -0.10191755939636227     9.999961483469521-7.209917488501833E-5i
-1.3                      0                        9.999961483469368-7.210116192058478E-5i
-0.49791297211385643      -1.2008674665427264      9.999961483469304-7.207699869386601E-5i
-0.510399172809512        -0.9339474656970057      9.999961483469528-7.208245407567003E-5i
-0.3309785191594261       -1.0518819784006919      9.999961483469496-7.207998350000721E-5i
-0.25427302997131845      -1.2748902800748012      9.999961483469296-7.207536189396476E-5i
0                         -1.3                     9.999961483469288-7.207479805413703E-5i
-0.10538155234965872      -1.0659210831003534      9.999961483469521-7.207964706924741E-5i
-1.0664996676627645       0.10472812591542703      9.999961483469589-7.210320918389622E-5i
-1.2748902800748012       0.25427302997131845      9.999961483469384-7.210608388137643E-5i
-1.062896677181684        0.3387977857500095       9.999961483469571-7.210778986627217E-5i
-1.2008674665427264       0.49791297211385643      9.999961483469407-7.211084789198835E-5i
0.09303996630995835       -1.109229376845453       9.999961483469484-7.207875581309181E-5i
0.2542726496649377        -1.2748903559257052      9.99996148346929-7.207536165291697E-5i
-1.080783263646725        0.7224316832899383       9.999961483469427-7.211531847037537E-5i
-0.9395818995731745       0.5163281894979804       9.999961483469628-7.211132430998928E-5i
0.49791577134374276       -1.2008663059005218      9.999961483469324-7.207699829020414E-5i
0.30441895262960145       -1.0265167154650547      9.999961483469546-7.208049386145524E-5i
-0.8531621289884193       0.7147457534798374       9.999961483469628-7.21152977016656E-5i
-0.9192399636727167       0.9192376674108731       9.99996148346948-7.211933613530995E-5i
0.5084580515760682        -0.9864169887835698      9.999961483469521-7.208138770994141E-5i
0.722434315397021         -1.0807815042536755      9.999961483469331-7.20795931569139E-5i
-0.722434315397021        1.0807815042536755       9.999961483469543-7.212272977805831E-5i
-0.6753386092608932       0.8357571304674056       9.999961483469706-7.211780968078458E-5i
0.9192399636727167        -0.9192376674108731      9.999961483469356-7.208298679854502E-5i
0.6368844629499694        -0.8395735824827906      9.999961483469589-7.208441787859918E-5i
-0.5126260877670702       0.9848384949288346       9.99996148346973-7.212090123340379E-5i
-0.49791577134374276      1.2008663059005218       9.999961483469596-7.212532465477197E-5i
1.080783263646725         -0.7224316832899383      9.999961483469386-7.208700447300239E-5i
0.8095056677279252        -0.6838518544522508      9.999961483469614-7.208761885200504E-5i
-0.2542726496649377       1.2748903559257052       9.999961483469642-7.212696131492985E-5i
-0.3053391794608046       1.0335196511967168       9.999961483469782-7.21219720067764E-5i
1.2008674665427264        -0.49791297211385643     9.99996148346943-7.209147506714842E-5i
0.9467820609760702        -0.5052548130729154      9.999961483469628-7.209122013293136E-5i
-0.10393032726764048      1.1209472354201107       9.99996148346978-7.212380716016656E-5i
0                         1.3                      9.999961483469674-7.212752494813782E-5i
0.2542774865505297        1.274889391215389        9.999961483469681-7.21269611005579E-5i
0.10931980786731789       1.064593217881322        9.99996148346983-7.212264825564271E-5i
1.0596055206129462        -0.3394856756542466      9.999961483469617-7.209451865173466E-5i
1.2748902800748012        -0.25427302997131845     9.999961483469443-7.209623909676407E-5i
1.3                       0                        9.999961483469459-7.210116107922886E-5i
1.0610299183128573        -0.12096244923492275     9.99996148346966-7.209879581181957E-5i
0.3316141418675122        1.0762888869531588       9.999961483469797-7.21228389246676E-5i
0.4979217638008312        1.2008638212276481       9.999961483469669-7.212532424430284E-5i
1.1000394500664892        0.08964047751280829      9.999961483469644-7.210291094365414E-5i
1.2748898793617054        0.2542750390838555       9.9999614834695-7.210608311247664E-5i
0.7224441620852138        1.0807749222983452       9.999961483469646-7.212272915065997E-5i
0.506476331786558         0.9410708427980866       9.999961483469813-7.212001508283715E-5i
1.2008648344332253        0.4979193201932035       9.99996148346953-7.21108472627346E-5i
1.0224128903168839        0.29599006887008583      9.999961483469702-7.210696093738591E-5i
0.7153895190447785        0.8566739894903068       9.999961483469763-7.211820897652775E-5i
0.9192416125180489        0.9192360185584644       9.999961483469605-7.211933550752003E-5i
0.9847230645340913        0.5050330166939598       9.999961483469699-7.211108252832722E-5i
1.0807768060422045        0.7224413440004743       9.99996148346956-7.211531798014144E-5i
0.8313272910502476        0.6678774959315521       9.999961483469761-7.211437520193531E-5i
-7.620732461602964        -4.602304363092488       8.996278950365856-5.1853012660458964E-5i
-8                        -4.411764705882353       9.013176014823795-5.1894764288231236E-5i
-8                        -5                       8.995494974887684-5.185078890682901E-5i
-7.416745024377485        -5                       8.977989922457088-5.180661195377299E-5i
-7.565418256572764        -4.115593460750539       9.026043878494242-5.192796958186114E-5i
-8                        -3.823529411764707       9.065438902491067-5.2020699438024866E-5i
-7.544156686776493        -3.5350654652972797      9.093796844594577-5.20913657393891E-5i
-8                        -3.2352941176470598      9.150045041679268-5.221161771675389E-5i
-7.1214990270645675       -4.484163648829542       8.969874393911297-5.178822706270002E-5i
-6.833490048754966        -5                       8.924677900984653-5.1667890691351625E-5i
-7.531696500245358        -2.948064912506719       9.193579152203812-5.231304603832638E-5i
-8                        -2.647058823529412       9.263491937683016-5.244171722871728E-5i
-7.1061210562455335       -3.8367336098545026      9.026084541200957-5.1938675784808555E-5i
-7.061702768860148        -3.251179480348358       9.110172466400243-5.215290175670822E-5i
-6.69112067078639         -4.100343731531555       8.951813240629823-5.1755438477803716E-5i
-6.511944445455802        -4.532944542536431       8.89202211729915-5.158577599133542E-5i
-6.250235073132447        -5                       8.83317632228947-5.141593945664905E-5i
-7.529816498502171        -2.3599156274000532      9.320994639143118-5.256151782058209E-5i
-8                        -2.0588235294117663      9.401326716502329-5.2679939946355634E-5i
-7.0616517664886596       -2.662274113826918       9.22880872970191-5.242367374047082E-5i
-6.594984711785284        -2.965286814101514       9.120804125246933-5.223629186100253E-5i
-6.53474522474536         -3.5563403811929684      9.00207285853272-5.1918486155839205E-5i
-6.2065760345371705       -4.054911385990191       8.88007658677815-5.1581876632560745E-5i
-5.9415981204895445       -4.526088544843773       8.782883366468871-5.128200527581975E-5i
-5.66698009750993         -5                       8.699160649048013-5.101628407482067E-5i
-6.162823480649353        -3.1375868290628177      9.025725198714134-5.2059342707912596E-5i
-7.527632924686014        -1.7715005640288102      9.47061090035558-5.280222875526986E-5i
-8                        -1.4705882352941193      9.558472751395787-5.289415596358892E-5i
-7.05808507208422         -2.071764978371075       9.373038856930975-5.270598363035059E-5i
-6.593625047454768        -2.3774328702337884      9.259985429239977-5.257269512184845E-5i
-6.132714667771655        -2.6478702241867715      9.137601510079717-5.23948722324203E-5i
-5.919887850353653        -3.548340817461842       8.900222034883399-5.1712091496779746E-5i
-5.6457996396591925       -4.04055881788079        8.759093270530071-5.126391703944729E-5i
-5.365548983025896        -4.52174434590865        8.629094542240365-5.08143110510606E-5i
-5.0837251218874115       -5                       8.515902181428485-5.041434804599562E-5i
-5.654115354039           -3.0010099574222253      8.966866451446563-5.203918859039691E-5i
-7.525259778534514        -1.181964895325242       9.637358642824573-5.300293456916981E-5i
-8                        -0.8823529411764723      9.729518380614865-5.305549684117162E-5i
-7.524401846229602        -0.5911716071396363      9.815796769107871-5.313597729815751E-5i
-8                        -0.29411764705882604     9.908919963750007-5.3142236744755616E-5i
-7.052870426037196        -1.4799577873075023      9.537672504112997-5.296192895746232E-5i
-6.583209123265152        -1.7800380323839995      9.42475481962803-5.290650713314253E-5i
-6.115778486355029        -2.0771657618182426      9.29535950579863-5.280693912050134E-5i
-5.660457622513197        -2.3815427479266016      9.142943520992615-5.261282325909602E-5i
-5.249241746201824        -2.634418878939028       8.988793996534342-5.234308580473379E-5i
-5.365235303152567        -3.536942872182474       8.773577944836411-5.143144832371844E-5i
-5.070820533650307        -4.040119803907917       8.589936699045218-5.077065455399305E-5i
-4.783374031556035        -4.522508194210061       8.421132642617989-5.011227356659526E-5i
-4.5004701462648935       -5                       8.273331567762837-4.952750500254548E-5i
-5.058354760236466        -3.078310863038124       8.807477621849928-5.175083931162959E-5i
-7.5237897342628175       -0.0017890020254301051   9.999453046310029-5.318284456998934E-5i
-8                        0.2941176470588207       10.091106673859894-5.314271888260886E-5i
-7.049449847006276        -0.888524040094084       9.716681684696388-5.31553921462676E-5i
-7.048958450462714        -0.2986863831434661      9.903815025486137-5.325927765003017E-5i
-6.576562327028852        -1.187257818634553       9.60650322789697-5.318389660952487E-5i
-6.102683255906965        -1.4872386672251616      9.480285981151427-5.319708117747122E-5i
-5.622575150852899        -1.7905594487523138      9.331309828970623-5.3157628551527896E-5i
-5.10396037805803         -2.1090615675573634      9.142576249007924-5.300262174225613E-5i
-7.599916735850357        4.619435849778325        11.005270251300727-5.185421327802091E-5i
-8                        5                        11.004539497673555-5.185577625407735E-5i
-8                        4.411764705882343        10.986854704754407-5.189970133684631E-5i
-7.416745024377485        5.000000000000001        11.022048685028627-5.18116444354946E-5i
-4.769181943132963        -2.601975450137193       8.890227386763186-5.234229729496294E-5i
-4.773639494508092        -3.5635460709277975      8.586748859691186-5.094591408481033E-5i
-4.481616386105926        -4.0449323110483         8.361730434954552-5.002219015531181E-5i
-4.196568624151487        -4.526294135063423       8.146268572898409-4.907322182633531E-5i
-3.9172151706423755       -5                       7.956482162597847-4.823292841396189E-5i
-4.478158321240739        -3.0942284586651674      8.627487669363118-5.140776775905823E-5i
-0.39743172113943126      -4.525851889888176       1.4807222256519643-9.68667792055914E-6i
-0.4210293658738242       -4.589379190912233       1.6140045711023614-1.0536549018135674E-5i
-0.34050839689200857      -4.580108560023401       1.0752384724324076-7.022535065300952E-6i
-7.523544977774634        0.586635277415561        10.182837600414295-5.3137749278365356E-5i
-8                        0.8823529411764666       10.270508615857839-5.305692306633106E-5i
-7.52314697820783         1.174371679404781        10.360467823457894-5.3007216875306026E-5i
-8                        1.4705882352941124       10.44155502215921-5.2896467504614336E-5i
-7.048892691146122        0.29020579703422006      10.09348687921963-5.326056018233262E-5i
-4.517991968103481        -2.143013116913909       9.016571301826419-5.315569786556047E-5i
-6.573803807467335        -0.5956252590785192      9.79971092573314-5.336753992315404E-5i
-6.575842000191436        -0.007814376981234277    9.9973728410575-5.343147698538148E-5i
-6.098581115590634        -0.8941831152220756      9.681811359835642-5.349417397683899E-5i
-5.619508675378825        -1.19451439385014        9.54481769536732-5.361607611664038E-5i
-5.133081710743618        -1.4938813153547663      9.383665711636224-5.3696930752183444E-5i
-4.717283250982522        -1.7244753483741593      9.232891318876336-5.371812595867529E-5i
-7.52216638991525         1.7609265849893967       10.526683587149243-5.280932238613944E-5i
-8                        2.0588235294117583       10.598701858327596-5.268304438270859E-5i
-7.522289466830599        2.3438885043754385       10.67545461833788-5.257190392740042E-5i
-8                        2.647058823529404        10.736537252096953-5.244549704406075E-5i
-7.524175262313118        2.9253313031419625       10.80227178264249-5.2326228113979576E-5i
-8                        3.235294117647051        10.849984948321884-5.2215932196212983E-5i
-7.524747181762573        3.493132167071649        10.900859450046843-5.2108902210441626E-5i
-8                        3.8235294117646963       10.934595713130044-5.202537107962528E-5i
-7.470925175085259        4.1107577861998745       10.97800985625379-5.1923862242703944E-5i
-7.1119134797890435       4.574656756809408        11.035598439228417-5.1778665446153216E-5i
-6.833490048754966        5                        11.075354979314964-5.167320121094424E-5i
-7.089769568319575        3.6695379183367396       10.953609162306691-5.1996759576855435E-5i
-0.4919024560465333       -4.523351615256699       2.0655979796598096-1.3500345644615537E-5i
-4.196509517668655        -2.6190768229762553      8.7264151480737-5.2238908926612866E-5i
-3.609524940288231        -4.537184093579059       7.787160009564509-4.754891166225058E-5i
-3.3339601950198574       -5                       7.5428098104483-4.6348345255923044E-5i
-4.178811639786204        -3.5650551153085512      8.351872655934299-5.026084412670159E-5i
-3.8862217606106024       -4.051676690836474       8.062363483047749-4.890953434866929E-5i
-3.882334612000148        -3.066107144762762       8.415913400761902-5.099794038341973E-5i
-0.42045299332652997      -4.453438544998425       1.7640151198413474-1.1566076745728187E-5i
-0.33882452556810655      -4.491620843868633       1.0542913056145353-6.910564857474929E-6i
-0.5207291496133101       -4.6611301322479886      2.125846432805709-1.3847015907466711E-5i
-0.37489059220207743      -4.679845001284605       1.4289252020835124-9.31120244549309E-6i
-0.25                     -4.55                    0
-0.28065530845633757      -4.63621311193536        0.8485712333391012-5.532465716481715E-6i
-0.6169754330856044       -4.824503614253785       2.501511713747643-1.6247201564741025E-5i
-0.7133423146011957       -5                       2.837335516932916-1.839791341377411E-5i
-0.5039813647366937       -5                       2.092765034529391-1.3595861615770066E-5i
-7.04845657558771         0.878410058255231        10.280214265198838-5.315969503821298E-5i
-7.047093377526756        1.465794875605308        10.45843161047756-5.2970731820925876E-5i
-6.576890609436309        0.5805694817364583       10.195227735292052-5.3370603084649866E-5i
-4.012029311516954        -2.1326521659703386      8.908279761807329-5.342066253270569E-5i
-4.308987407261761        -1.6708373464681445      9.193048696895433-5.416163072692013E-5i
-6.103135934727423        -0.30766247707020494     9.889673320783425-5.365018501418589E-5i
-6.107314574972256        0.28021081304370093      10.100464414407936-5.365198080140637E-5i
-5.627806475177192        -0.6096206071410483      9.765504681531802-5.3908614097846494E-5i
-5.1418344647627645       -0.9200381585864387      9.616852818704757-5.418684982047875E-5i
-4.5933283444266735       -1.224638975008183       9.438041554715452-5.4513273583049415E-5i
-7.043162229511936        2.0490357201105445       10.621788713431785-5.272085201048589E-5i
-7.044504267593729        2.621376028539286        10.763128008886001-5.244690958540737E-5i
-7.053962791048367        3.1861528639273726       10.878779073825058-5.218470234498261E-5i
-6.842270181664241        4.075856154084609        11.027059020640282-5.181216831123193E-5i
-6.557647199446942        4.529421711785204        11.100737398393754-5.161065907836657E-5i
-6.250235073132447        5                        11.166865119025664-5.142157025980749E-5i
-6.5598050046781635       3.5273034034131276       10.989880337652679-5.194360897142102E-5i
-0.922843730854476        -5                       3.5389505196405024-2.288800322416159E-5i
-0.8270034828374          -4.81451508118854        3.2575813134146645-2.110912319637257E-5i
-0.5300078772857131       -4.411104307288819       2.471304471043631-1.6194066231759773E-5i
-0.6343184427820127       -4.512999548218864       2.757231027429292-1.799073983736095E-5i
-0.7187128223745244       -4.650525162741851       2.956909127729975-1.9222270245721648E-5i
-1.029791665230372        -4.804884920066729       3.9032922504935867-2.5221663758061316E-5i
-1.1381486889215449       -5                       4.177332973889685-2.6929722521242897E-5i
-1.2404615059051167       -4.802421164556148       4.484213529818702-2.8874923723465307E-5i
-1.36245346869066         -5                       4.753903522117197-3.052902499763746E-5i
-1.6025204387176206       -5                       5.2845387853273005-3.37823500609358E-5i
-1.4849845240409099       -4.781052312523231       5.068681830001264-3.2494593210973315E-5i
-3.598053992261687        -2.5096919937590614      8.592109370403378-5.248016602421239E-5i
-3.6055079602505447       -2.00211870752375        8.885256525809055-5.4089947651948236E-5i
-3.037646267374279        -4.569622152976563       7.326832879905518-4.536294138307307E-5i
-2.7716354828648626       -5                       7.019842238213999-4.371793315930723E-5i
-3.285275391557954        -4.075117726562312       7.665619104479345-4.7225185600337605E-5i
-3.565481179415126        -3.5613967790462144      8.045856739087732-4.9238025640306066E-5i
-3.2769930216284835       -3.047193698821319       8.152151694484983-5.039303319056031E-5i
-0.3562502282711212       -4.401484952243039       1.5140245535756571-9.959813538906162E-6i
-0.4492508200177754       -4.354449629546279       2.240025901892457-1.4727149385133547E-5i
-0.38011417603405734      -4.312415407077749       2.074701081278092-1.3680576022233114E-5i
-0.25                     -4.45                    0
-0.4118162126445165       -4.824747388539153       1.722534897936191-1.1204209876538903E-5i
-0.2563177272944251       -4.732161239872935       1.0368694016717994-6.751328626516275E-6i
-0.18157941589934193      -4.641112985969388       0.5076255647036151-3.3064877925107276E-6i
-0.13528973144279788      -4.55                    0
-0.05382786485298841      -4.639072420824315       0.3549558752250399-2.3107090101912596E-6i
1.1102230246251565E-16    -4.55                    0
-0.2946204148721918       -5                       1.4283316675091575-9.28969766473147E-6i
-6.575853569618023        1.1690885683518002       10.38775966709679-5.3193378319533114E-5i
-6.572671775322056        1.7610768007111217       10.570415469322908-5.292140792136994E-5i
-6.109495129618288        0.8688348244723825       10.30887182846759-5.35000813734748E-5i
-3.852203509223308        -1.6349605876073556      9.137607930476376-5.478787127581965E-5i
-4.129296047999638        -1.2949802358146598      9.352860523435842-5.5059439730647405E-5i
-3.3734737488711004       -1.6208075425588209      9.070889463240787-5.5622384588817265E-5i
-5.63759080867197         -0.021141134613367942    9.991861355669188-5.4010505741121344E-5i
-5.644442694082908        0.565385190437596        10.217022645634215-5.391180264761443E-5i
-5.1662385306012375       -0.3203362587508303      9.866470600782314-5.4445253846714026E-5i
-4.69328098306708         -0.6086197077148645      9.72478004566534-5.494710131274882E-5i
-4.197232690914261        -0.8385979696420591      9.586938712815579-5.5589219580642696E-5i
-6.550936314279343        2.3407612223913743       10.734442883793415-5.259943462993486E-5i
-6.58195618690646         2.8863715052238494       10.863526392898919-5.228356595878299E-5i
-6.1545025500734125       3.1504206619828183       10.978376256592353-5.2054005935875076E-5i
-6.26356066266645         4.043459347963295        11.108278068963171-5.161781195109215E-5i
-5.968923136949323        4.52002152947451         11.210597899019445-5.130710438688987E-5i
-5.666980097509931        5                        11.300883934321797-5.102243219642907E-5i
-5.964987597915899        3.576094261073346        11.0958763460643-5.1719258710566896E-5i
-0.5259087713011241       -4.299069539522703       2.7660235957189796-1.818430022995047E-5i
-0.9221043293808321       -4.6200169847396255      3.683056065355417-2.388235526030991E-5i
-0.6582137802403031       -4.323316966189945       3.2057241776024403-2.1004090127382636E-5i
-0.7911460965479868       -4.469985615802304       3.4129448657131225-2.2233537342174918E-5i
-1.1255758931699886       -4.593038003889978       4.29652210040565-2.7773346659351422E-5i
-1.3336136520949067       -4.610182110500211       4.805214919985603-3.093501368124038E-5i
-2.525951002010783        -4.618130698649586       6.786926432287303-4.2543948021836336E-5i
-2.2840743060005746       -5                       6.429562679389299-4.05025062757286E-5i
-1.9016150113691275       -5                       5.843596925457979-3.712587923521794E-5i
-2.0934301254067615       -4.660720782029804       6.20269957079051-3.9274346912387255E-5i
-1.7477235927950332       -4.728596224179757       5.610339320154957-3.578461099108107E-5i
-1.5366164081444011       -4.509452204631911       5.307530045494562-3.4062090359801354E-5i