% Model:              VLR_3_01V03.mph
% Version:            COMSOL 5.5.0.292
% Date:               Jun 21 2020, 19:10
% Dimension:          2
% Nodes:              1156
% Expressions:        1
% Description:        Electric potential
% Length unit:        cm
% x                       y                        V2 (V)
-1.4059463872219098       -0.9813797318893042      9.663437349430993-6.360524376309577E-5i
-1.149063052439335        -0.9641857194123948      9.999434508040558-6.73666892462544E-5i
-1.2990322911339665       -0.750010070993209       9.999434508040553-6.737368394114532E-5i
-1.5540042043557092       -0.722034845019996       9.777364441136434-6.407682638810123E-5i
-1.409536313227687        -0.5130374076931423      9.99943450804053-6.738111931382829E-5i
-1.2205243408220772       -1.2117890609520467      9.516286428366032-6.284666656963475E-5i
-0.9642335055494975       -1.1490229531109146      9.999434508040556-6.736033524016535E-5i
-1.001675119152985        -1.4061656076255087      9.329569117866372-6.17971016309281E-5i
-0.7500124149660692       -1.2990309378135554      9.999434508040554-6.735486345545298E-5i
-0.750736199032324        -1.5586110631617294      9.112605175730861-6.054293240586898E-5i
-0.5130398575996976       -1.4095354215180553      9.999434508040546-6.735057780190799E-5i
-1.652882734670768        -0.44229144020041306     9.873701894149065-6.439213890332053E-5i
-1.4772109886979958       -0.2604759007468612      9.999434508040505-6.738883039361101E-5i
-1.7072288493965275       -0.15000960532779778     9.95780841501279-6.449458591650522E-5i
-1.5                      0                        9.999434508040508-6.739667655609548E-5i
-1.7054959875627569       0.15051427549642327      10.040943254342992-6.452255112088754E-5i
-1.4772106593504082       0.26047776853607507      9.999434508040537-6.740452276926686E-5i
-0.4712185464905898       -1.6644929389818814      8.895954280288093-5.927419582993609E-5i
-0.26047776853607507      -1.4772106593504082      9.999434508040538-6.734781049938105E-5i
-1.6526797183555855       0.44479235953652957      10.126156245690536-6.440508992162045E-5i
-1.4095354215180553       0.5130398575996976       9.999434508040531-6.74122338660279E-5i
-0.16706849225139733      -1.7244290578951678      8.722703168616727-5.822555767614998E-5i
0                         -1.5                     9.999434508040526-6.734684381632385E-5i
-1.5485083850690595       0.7225601473413086       10.217881526872107-6.41754850487261E-5i
-1.2990309378135554       0.7500124149660692       9.999434508040535-6.741966922081716E-5i
-1.3984996880717646       0.9799687634631224       10.326694833523922-6.37582142411028E-5i
-1.1490229531109146       0.9642335055494975       9.999434508040553-6.742666541806076E-5i
0.13842272144382808       -1.7207721640461666      8.747114577520277-5.8408112667695134E-5i
0.2604759007468612        -1.4772109886979958      9.999434508040514-6.734781014386694E-5i
-1.207848781924884        1.2089622511194882       10.463770608661816-6.309511044205931E-5i
-0.9641857194123948       1.149063052439335        9.999434508040556-6.74330192052365E-5i
0.43915387679224327       -1.654917529834579       8.95893082341945-5.9757791818799585E-5i
0.5130374076931423        -1.409536313227687       9.99943450804049-6.735057720200156E-5i
-0.9836844118469209       1.4016634991216563       10.638169453323963-6.214304493849008E-5i
-0.750010070993209        1.2990322911339665       9.999434508040562-6.7438489586652E-5i
0.7214792589985207        -1.547279365387828       9.180255113339989-6.108943539203338E-5i
0.750010070993209         -1.2990322911339665      9.999434508040457-6.735486276869306E-5i
-0.7263394076186043       1.5552214443722479       10.852023733129107-6.090673447576823E-5i
-0.5130374076931423       1.409536313227687        9.999434508040585-6.744277523964128E-5i
0.9785263024164088        -1.398456435440125       9.374863225095877-6.219759830970896E-5i
0.9641857194123948        -1.149063052439335       9.999434508040425-6.736033310321784E-5i
-0.4433354233075031       1.659137388183728        11.061968517151662-5.96739011587328E-5i
-0.2604759007468612       1.4772109886979958       9.999434508040624-6.744554229898202E-5i
1.2065196455627076        -1.2089205673343237      9.536619763249604-6.305401749564393E-5i
1.1490229531109146        -0.9642335055494975      9.999434508040402-6.736668685140886E-5i
-0.15194000925542003      1.7071249677982574       11.182042670071725-5.898136109424132E-5i
0                         1.5                      9.999434508040656-6.744650885299585E-5i
1.400126852846976         -0.9836763712696163      9.666257448238836-6.36516079883024E-5i
1.2990309378135554        -0.7500124149660692      9.99943450804038-6.737368303026977E-5i
0.2604733176110247        1.4772114441787627       9.999434508040673-6.744554228060715E-5i
0.15018945803725137       1.7177638434926634       11.237432157264935-5.8586978392785684E-5i
1.5503740482788273        -0.725279993048226       9.777659318923684-6.409881919523334E-5i
1.4095354215180553        -0.5130398575996976      9.999434508040405-6.73811183905496E-5i
0.5130308300018143        1.4095387073321717       9.999434508040677-6.744277502346234E-5i
0.4560529429712923        1.669550546059036        11.117180475902115-5.926255505133338E-5i
1.6534433353935112        -0.4436244802929349      9.872860773918704-6.437963823129624E-5i
1.4772106593504082        -0.26047776853607507     9.999434508040423-6.738882951497803E-5i
1.7036006801727959        -0.14910042932821638     9.958623249290413-6.454120257191034E-5i
1.5                       0                        9.999434508040421-6.739667576849672E-5i
0.7500003944253057        1.2990378779550218       9.999434508040666-6.743848941743216E-5i
0.7417756358358775        1.5536952399041797       10.860671902363295-6.08206393634581E-5i
1.7037291801029393        0.14851675338455547      10.040081349757278-6.454720788058727E-5i
1.4772116647960043        0.2604720664305813       9.999434508040439-6.740452186217403E-5i
1.653421472782773         0.4414811771615677       10.125061410704625-6.44090543167455E-5i
1.409539002854417         0.5130300180614935       9.999434508040471-6.741223289159495E-5i
0.9641816539097096        1.149066463814838        9.999434508040624-6.743301888442472E-5i
0.9939604273711035        1.3971653801522927       10.637606179965694-6.212844245212156E-5i
1.217413382610106         1.2074519587353862       10.471470994943035-6.300569346218307E-5i
1.149066861522912         0.964181179939686        9.99943450804058-6.742666314761365E-5i
1.405751642902688         0.9795546262158545       10.333127091534509-6.367302170345506E-5i
1.2990382497578632        0.7499997504439765       9.999434508040519-6.741966821729562E-5i
1.5524363465489834        0.7203059176734528       10.219134307276626-6.41421557307987E-5i
-0.9965377364775745       -0.5119901962187896      9.999434508040704-6.737851126546026E-5i
-1.2008663059005218       -0.49791577134374276     9.999434508040535-6.737932044393749E-5i
-1.0807815042536755       -0.722434315397021       9.999434508040551-6.737116387643094E-5i
-0.9192376674108731       -0.9192399636727167      9.999434508040563-6.736366993070329E-5i
-0.8319228040530704       -0.666498582512621       9.999434508040752-6.737268992958158E-5i
-0.7189976595822637       -0.8618054782722095      9.99943450804071-6.736531634744504E-5i
-0.7224316832899383       -1.080783263646725       9.99943450804056-6.73571516557818E-5i
-1.2748903559257052       -0.2542726496649377      9.999434508040512-6.738788783864785E-5i
-1.0319755508591002       -0.2986993336941238      9.999434508040734-6.738612565578105E-5i
-1.127842537973944        -0.10191755939636227     9.99943450804068-6.739310726486998E-5i
-1.3                      0                        9.99943450804051-6.73966765560442E-5i
-0.49791297211385643      -1.2008674665427264      9.999434508040547-6.735199538370996E-5i
-0.510399172809512        -0.9339474656970057      9.999434508040748-6.73622285325958E-5i
-0.3309785191594261       -1.0518819784006919      9.999434508040718-6.735745948823061E-5i
-0.25427302997131845      -1.2748902800748012      9.999434508040537-6.734863678342427E-5i
0                         -1.3                     9.99943450804052-6.734745613291692E-5i
-0.10538155234965872      -1.0659210831003534      9.999434508040736-6.735671750196324E-5i
-1.0664996676627645       0.10472812591542703      9.999434508040734-6.7400362967656E-5i
-1.2748902800748012       0.25427302997131845      9.99943450804053-6.740546528572337E-5i
-1.062896677181684        0.3387977857500095       9.999434508040697-6.74086163215914E-5i
-1.2008674665427264       0.49791297211385643      9.999434508040533-6.741403256556806E-5i
0.09303996630995835       -1.109229376845453       9.999434508040688-6.735502639627992E-5i
0.2542726496649377        -1.2748903559257052      9.999434508040506-6.734863655938388E-5i
-1.080783263646725        0.7224316832899383       9.999434508040542-6.74221891277577E-5i
-0.9395818995731745       0.5163281894979804       9.999434508040736-6.74150782550101E-5i
-0.8531621289884193       0.7147457534798374       9.999434508040714-6.742237880953609E-5i
-0.9192399636727167       0.9192376674108731       9.999434508040556-6.742968306393456E-5i
0.49791577134374276       -1.2008663059005218      9.999434508040489-6.735199494609472E-5i
0.30441895262960145       -1.0265167154650547      9.999434508040716-6.735840262176653E-5i
-0.722434315397021        1.0807815042536755       9.999434508040554-6.743620130640524E-5i
-0.6753386092608932       0.8357571304674056       9.999434508040759-6.742715601167162E-5i
0.5084580515760682        -0.9864169887835698      9.999434508040668-6.736023909419296E-5i
0.722434315397021         -1.0807815042536755      9.999434508040451-6.735715103483823E-5i
-0.5126260877670702       0.9848384949288346       9.999434508040748-6.743304586530674E-5i
-0.49791577134374276      1.2008663059005218       9.999434508040572-6.744135748683491E-5i
0.9192399636727167        -0.9192376674108731      9.999434508040414-6.736366922583646E-5i
0.6368844629499694        -0.8395735824827906      9.9994345080407-6.73659846494773E-5i
-0.2542726496649377       1.2748903559257052       9.999434508040618-6.744471590698331E-5i
-0.3053391794608046       1.0335196511967168       9.999434508040792-6.743521808024041E-5i
1.080783263646725         -0.7224316832899383      9.999434508040387-6.737116313463239E-5i
0.8095056677279252        -0.6838518544522508      9.99943450804067-6.73720197242996E-5i
-0.10393032726764048      1.1209472354201107       9.999434508040782-6.743877891633258E-5i
0                         1.3                      9.999434508040649-6.744589634794254E-5i
1.2008674665427264        -0.49791297211385643     9.999434508040398-6.737931969486354E-5i
0.9467820609760702        -0.5052548130729154      9.999434508040641-6.73786806059202E-5i
1.0596055206129462        -0.3394856756542466      9.99943450804061-6.738470837540233E-5i
1.2748902800748012        -0.25427302997131845     9.999434508040412-6.738788700015625E-5i
0.2542774865505297        1.274889391215389        9.99943450804067-6.744471578235044E-5i
0.10931980786731789       1.064593217881322        9.999434508040828-6.743658174907365E-5i
1.3                       0                        9.999434508040418-6.739667577162768E-5i
1.0610299183128573        -0.12096244923492275     9.999434508040638-6.739241583057289E-5i
0.3316141418675122        1.0762888869531588       9.99943450804079-6.743683339082553E-5i
0.4979217638008312        1.2008638212276481       9.99943450804067-6.74413570839841E-5i
0.7224441620852138        1.0807749222983452       9.99943450804065-6.743620060052305E-5i
0.506476331786558         0.9410708427980866       9.99943450804082-6.743139963663413E-5i
0.7153895190447785        0.8566739894903068       9.999434508040757-6.742785340469903E-5i
0.9192416125180489        0.9192360185584644       9.9994345080406-6.742968247857303E-5i
1.0807768060422045        0.7224413440004743       9.999434508040546-6.74221888923872E-5i
0.8313272910502476        0.6678774959315521       9.999434508040745-6.742071376259757E-5i
0.9847230645340913        0.5050330166939598       9.999434508040668-6.741461000479275E-5i
1.2008648344332253        0.4979193201932035       9.999434508040475-6.741403212853868E-5i
1.1000394500664892        0.08964047751280829      9.999434508040615-6.739982246711629E-5i
1.2748898793617054        0.2542750390838555       9.999434508040439-6.740546462675097E-5i
1.0224128903168839        0.29599006887008583      9.999434508040677-6.740713901067599E-5i
-7.625854657873597        -4.603315491951089       8.920046779934435-4.597216571019038E-5i
-8                        -4.411764705882353       8.937690737308989-4.600925926910448E-5i
-8                        -5                       8.919065930635202-4.5969850797608194E-5i
-7.424910408262717        -5                       8.901160006454255-4.5931416450536624E-5i
-7.569000143109421        -4.118581057344222       8.951087591243605-4.603865656027228E-5i
-8                        -3.823529411764707       8.992863596541223-4.612236561149553E-5i
-7.1353627379958455       -4.48623169652887        8.893224444400689-4.5916194720506665E-5i
-6.849820816525474        -5                       8.846776230438053-4.581115979945203E-5i
-7.108866283656047        -3.847417707145536       8.949827444606376-4.604532036031836E-5i
-6.701052440992873        -4.106509424138128       8.873346972285908-4.588456356672073E-5i
-7.5429201195567535       -3.5398305944512063      9.021954759132017-4.6184196897937255E-5i
-8                        -3.2352941176470598      9.082539015304887-4.629453309272665E-5i
-6.529813051203664        -4.5332733729418395      8.813211999129026-4.573944846681872E-5i
-6.274731224788231        -5                       8.75396346541127-4.559432873637798E-5i
-6.225725362825035        -4.06867596516           8.79887430029956-4.573024845114432E-5i
-7.524183243174064        -2.9540878163791366      9.127069982265398-4.638345459372502E-5i
-8                        -2.647058823529412       9.203419090657524-4.650315395379361E-5i
-6.53494375842273         -3.5729763959851253      8.92167245017478-4.602026503780721E-5i
-7.055471047400985        -3.260073456426577       9.037251856120697-4.623586746723753E-5i
-5.972035245454664        -4.531531779163326       8.703181769903994-4.54794790398351E-5i
-5.699641633050989        -5                       8.619316331641794-4.5254354003827016E-5i
-5.678260735664247        -4.063947377776505       8.675006155603628-4.545096851123378E-5i
-5.937839295333494        -3.6039772040538196      8.808842047247564-4.5813192927823636E-5i
-7.522585747406066        -2.3600817328027492      9.264374480860285-4.6611812333911954E-5i
-8                        -2.0588235294117663      9.351139429459622-4.6720444730853754E-5i
-6.130852199701442        -3.182670437868081       8.931352071133459-4.611492210912332E-5i
-7.043399903317458        -2.6638071491020012      9.16357080431837-4.648367509590396E-5i
-6.5559484409423625       -2.9468744685943338      9.048502796132558-4.631719203131366E-5i
-5.406309019256829        -4.529558260257419       8.549631941448224-4.508396315263912E-5i
-5.124552041313747        -5                       8.43788205283611-4.475094123269831E-5i
-5.115984084003421        -4.06060166039839        8.505520772258087-4.502936687604784E-5i
-5.389284056305223        -3.5992948083362593      8.673273901297863-4.5543954678376135E-5i
-5.667969659082294        -3.1362982391969463      8.849109288789313-4.601851491810247E-5i
-7.5229798687369325       -1.7687655293993167      9.426081973300859-4.6833321219413655E-5i
-8                        -1.4705882352941193      9.520488401894285-4.69169963351206E-5i
-7.045167997489926        -2.067740465613544       9.3198805432974-4.674493252941258E-5i
-6.008329739867662        -2.64672806290359        9.044572627547401-4.644242785898093E-5i
-6.562693996943893        -2.3549913092806274      9.19979222654296-4.6630138548338843E-5i
-4.835495010139418        -4.52760905971779        8.346297046166084-4.4504427774313835E-5i
-4.548811659825666        -4.055399559385251       8.285518636042797-4.4417678214668743E-5i
-4.549462449576504        -5                       8.202992464894402-4.402714733024399E-5i
-4.830948669384619        -3.5922833525775495      8.49436324820425-4.514652263772491E-5i
-5.104294244484724        -3.138820779113087       8.70240329724201-4.5795954718597905E-5i
-5.3510813073353365       -2.7171450415892693      8.893523626171005-4.630771864256158E-5i
-4.267012020026996        -3.5820025447736508      8.265598570144535-4.456976265657515E-5i
-7.523152004228676        -1.1791285577107078      9.606424729031888-4.701792833914167E-5i
-8                        -0.8823529411764723      9.705651671317769-4.706582540297682E-5i
-7.045853874394011        -1.4753362079583494      9.498034980916957-4.698066734972502E-5i
-6.5645530404054355       -1.7583013522484758      9.378762566927433-4.693769993038276E-5i
-5.542183186390657        -2.215618435963143       9.099054382599094-4.6793345107671014E-5i
-6.076331722789085        -2.0261641378293938      9.243013455192928-4.686572679352347E-5i
-4.260104510070431        -4.526850354334253       8.084504931223298-4.3671175592021164E-5i
-3.9757647572467456       -4.0550464668903725      8.003493370175986-4.353065462404599E-5i
-3.701710692799777        -3.587043962803005       7.9726532257997205-4.3705768486858156E-5i
-3.9743728578392616       -5                       7.906261870152445-4.3007315431586196E-5i
-4.554643675121397        -3.120988092940557       8.525956213144381-4.550131326258779E-5i
-4.830235340899057        -2.6676309518198424      8.77455791054362-4.626576880798808E-5i
-5.099378324494919        -2.343707404893292       8.963391817233363-4.6699979206097976E-5i
-3.9960662278728845       -3.111071771239813       8.298369002911821-4.504628262028218E-5i
-3.431596650565515        -3.113653703457757       8.005122311296072-4.4318618888100596E-5i
-7.522438567264249        -0.5891933555353893      9.799789148489308-4.7140718881948475E-5i
-8                        -0.29411764705882604     9.900434805030986-4.71462756190467E-5i
-7.045093743687699        -0.8836167964627399      9.6924729168897-4.715951485516464E-5i
-6.567275243711601        -1.1742109534798988      9.5739782571271-4.718928306117184E-5i
-6.089117349696007        -1.4511411790702393      9.442237981406132-4.72136966625413E-5i
-5.115856882618898        -1.9358657258817025      9.125969022539296-4.717235318542548E-5i
-5.612269969856568        -1.7022005277201089      9.296786136918135-4.721655210284747E-5i
-7.523181370666639        -5.954965657249031E-4    9.99923705458127-4.718408282269669E-5i
-8                        0.2941176470588207       10.098444723194941-4.714713694942881E-5i
-3.68463570339106         -4.529151605459992       7.755946417587237-4.249983534574E-5i
-3.4078900654617423       -4.061353264794096       7.6527553245931665-4.227815025188971E-5i
-3.139985282484718        -3.6006688787625314      7.604397341095798-4.2434291571936544E-5i
-2.8733406015051295       -3.126433947549772       7.632904657922237-4.316354604814225E-5i
-3.399283266102019        -5                       7.538125800082207-4.159858860688036E-5i
-4.295952171852181        -2.6394031846722936      8.615098110268642-4.617049684798186E-5i
-4.642998104665009        -2.1623303649753804      8.927054706766034-4.700926983795692E-5i
-3.162615012181813        -2.6298632365144763      8.122909395551572-4.554977525551013E-5i
-2.577678376135284        -2.6056009664109387      7.7848670841966845-4.490662576645042E-5i
-3.7254821568714394       -2.6233391387916107      8.399346743936215-4.5973473743804746E-5i
-4.775803129897877        -1.690799838958548       9.168354197084161-4.763611999834141E-5i
-7.046577197981646        -0.2949510076246939      9.895882484556525-4.7255339983354296E-5i
-6.570146079560243        -0.5874985244325849      9.783291949906415-4.73569961082062E-5i
-6.092720835026227        -0.8751878932043171      9.656950467083574-4.74790966708823E-5i
-5.614421049037429        -1.1565069151268272      9.511817447374641-4.7602446581715966E-5i
-5.131208580275263        -1.427679389242404       9.343163751602232-4.7700556094572436E-5i
-7.523230915812083        0.5875530621646505       10.198533785816329-4.714260553688994E-5i
-8                        0.8823529411764666       10.29322762275341-4.70683726247431E-5i
-7.04669927962572         0.29278907044272795      10.102239465527942-4.72563995875319E-5i
-7.523094081167642        1.176192965356296        10.391520286656567-4.702211378574186E-5i
-8                        1.4705882352941124       10.478390644401504-4.692112211551464E-5i
-0.46909012631822855      -3.143423897029411       2.7911998147812924-1.699059050209992E-5i
-0.451111659069678        -3.037725578345175       2.592249099489551-1.594261824511734E-5i
-0.563678135976185        -3.079991063373227       3.3316389651610963-2.0386670676186836E-5i
-0.3669708895499836       -3.0982015188371332      1.9416654121511046-1.185253985693557E-5i
-0.41890481945458313      -2.9515386766931675      2.4514643888380476-1.5236009724027091E-5i
-0.5394122168779529       -2.954170784578311       3.3278264466839427-2.0601996068456423E-5i
-0.6796747238155398       -2.997191005805676       4.002881456421874-2.4604116126442237E-5i
-0.6820817248794698       -2.8619848005576802      4.275262847557957-2.6544896497401223E-5i
-0.8373933457997895       -2.9213762580857834      4.75332852119206-2.9240673543823106E-5i
-0.7929395962986538       -3.062907791281529       4.400289328471408-2.685203961759162E-5i
-0.6856392544848608       -3.1359381590214697      3.91925652972562-2.3846482852047217E-5i
-0.5755040841864877       -3.1981904117730457      3.4293983299009683-2.0793497603725144E-5i
-3.1159477001642353       -4.535291140496549       7.3550895012643105-4.090574252160637E-5i
-2.8468799573024737       -4.081208151531638       7.220364379811117-4.052868329552801E-5i
-2.3428168172367334       -3.1808589934747196      7.1478644118899295-4.1234800077292014E-5i
-2.0195764907532014       -2.793364781545209       7.138050530140755-4.212526357941264E-5i
-2.5855686955314394       -3.6279280802700336      7.140298673695489-4.056148160210671E-5i
-0.3919224350748822       -3.1918022782316737      2.4189358614381846-1.4647625094991274E-5i
-0.29667419603434375      -3.1791561751520114      1.7853474063029224-1.07857300337546E-5i
-0.46644853058530394      -3.255505542063905       2.9862669437504628-1.8025886107661904E-5i
-2.8241936743647766       -5                       7.089939934551346-3.9703046501789936E-5i
-2.127544034423607        -2.191190827410566       7.9140596937315015-4.721510615443681E-5i
-4.041675409333113        -2.154679001727038       8.762232798961186-4.71807420420457E-5i
-4.342085473559009        -1.7042264468749513      9.075122320016247-4.792587764018457E-5i
-2.5803671859418076       -2.0903080035739663      8.253767626908791-4.796806907115389E-5i
-2.937531935925638        -2.22718100952623        8.297730966947658-4.716244648855518E-5i
-3.4301847844517632       -2.08295086681468        8.600597125225057-4.761491086081084E-5i
-4.6250061146850845       -1.2421250261725403      9.359684510428144-4.833835537278195E-5i
-6.571920056507325        -0.0015824340518917903   9.998854808735695-4.741610960645571E-5i
-6.0974861955269395       -0.2953389237757704      9.88282742902659-4.762266702587367E-5i
-5.621715728563268        -0.5893727863708782      9.747995815986128-4.786886099627456E-5i
-5.138482450504969        -0.889772805446056       9.58497676116687-4.813422481397354E-5i
-7.0451997267976605       0.8805890745323807       10.305378019511046-4.716289932596429E-5i
-6.570191694045293        0.5857184773050514       10.214939120069495-4.735926564574988E-5i
-7.519008228438865        1.7650027192191071       10.571803844015156-4.6839762141143995E-5i
-8                        2.0588235294117583       10.647739000718586-4.672598386600596E-5i
-7.04143079527433         1.467521863049108        10.498565652381275-4.6988435514243834E-5i
-7.520862896621486        2.3580526025242876       10.734049040662882-4.661885501332887E-5i
-8                        2.647058823529404        10.795457797747268-4.6509899093304776E-5i
-0.18808426997321614      -3.1645139008926364      1.1655143527989535-7.00691566986579E-6i
-0.25                     -3.05                    0
-0.34861376624113455      -2.9990275295597955      1.6159308388028044-9.998230063823496E-6i
-0.45331586480830305      -2.8641562907151976      3.0458685212657213-1.907795113386733E-5i
-0.35784238282131203      -2.9020534594877643      2.106720403076606-1.321001815699956E-5i
-0.3828394168836153       -2.817423211003918       2.824331280992555-1.7832365319746247E-5i
-0.1352897314427992       -3.05                    0
-1.6914904645991207       -2.448870960902328       7.2265917342090225-4.3851405739552E-5i
-1.398528431910744        -2.8430378761690034      6.246442297955888-3.7808950289003264E-5i
-1.351187790923602        -2.476405454234831       6.782633189506799-4.1842169824576165E-5i
-1.8310609512688765       -1.273815792675998       9.062998760914857-5.6686439867467834E-5i
-1.5077208543585425       -1.255687401540423       9.214174885624182-5.935406487269968E-5i
-1.696519192076543        -0.9789299827829043      9.457726923923394-6.046154802346597E-5i
-1.6922378590475986       -1.9962007147202512      7.961603414172045-4.914276589975198E-5i
-1.975108111410149        -1.6887347104658235      8.509842871238204-5.199456392926847E-5i
-1.6128394311568899       -1.597279679874783       8.627547164320015-5.436242141927629E-5i
-0.8087241558474101       -2.7552491866565316      5.015658931113593-3.1221898238835794E-5i
-1.0017859637848632       -2.7975270929490508      5.476723003816505-3.374990882677532E-5i
-0.5625240557707081       -2.8052716122572896      3.8972396015416275-2.4415078020511885E-5i
-0.6639712799915128       -2.7384752426926964      4.562227073203263-2.8598536646916127E-5i
-0.06529098400205122      -3.164734507862766       0.9442066355704827-5.6518214502316495E-6i
-6.106226635438361E-16    -3.05                    0
-0.9982848928246829       -3.092422017656588       5.041774399835281-3.055910125956178E-5i
-0.8119254839140841       -3.1905261206232396      4.39119736489652-2.6576540740222894E-5i
-0.690113502718215        -3.286822561272102       3.9630192544520813-2.3885650620240527E-5i
-0.5555304989959182       -3.3159947250331974      3.479260417220042-2.0939831177990737E-5i
-1.7514825028272514       -3.254392809357366       6.40016590195727-3.76611607922716E-5i
-1.2820464225357788       -3.3226556533991336      5.560982112865663-3.3110867019408464E-5i
-2.550765826449525        -4.549282419183702       6.872473889484887-3.8784851076760695E-5i
-2.2817477610407977       -4.111810968093344       6.683656730839464-3.809799824108276E-5i
-2.028851831264107        -3.666551154952357       6.540862025951777-3.778321276927567E-5i
-0.36042871311824437      -3.2827244809410447      2.576517913791261-1.5497846787243868E-5i
-0.2531353467470635       -3.273108606978461       2.1034023493711413-1.2621484795856574E-5i
-0.12872354979815154      -3.2684308393140475      1.7489057696369381-1.0461199939380297E-5i
-0.4462153258180629       -3.400897459375058       3.248610614449177-1.9452709625221587E-5i
-2.258033384977667        -5                       6.568716418965635-3.729769571362314E-5i
-2.394425115337163        -1.713077201999279       8.569974724399628-5.069646158264198E-5i
-2.2144604905398273       -1.2926774661563767      8.99723218709398-5.431301178386993E-5i
-2.0229056739163602       -0.9459788606124447      9.370023582811475-5.788385762141854E-5i
-3.8358935197041797       -1.6534016188307088      8.98913929440233-4.852403391145873E-5i
-4.137933476916963        -1.3100112140757927      9.249134230031135-4.8844976999308565E-5i
-2.9368143209175215       -1.7271819743170873      8.70337619137765-4.954758547829156E-5i
-3.40539031649934         -1.5455435810013376      8.958658241874726-4.944218692454296E-5i
-4.206887562632558        -0.8591197647026703      9.512792297949744-4.9396568907708594E-5i
-4.680177492520803        -0.61433679944238        9.683655361659367-4.885353336982138E-5i
-6.10041886962103         0.2898167172575227       10.113824135701222-4.762279658593753E-5i
-5.627912542504574        -0.00797989996783568     9.996023755207013-4.796461853736066E-5i
-5.158365737947963        -0.3086159163213064      9.855145216875584-4.8378121561576956E-5i
-6.566319956910435        1.1735410137572462       10.424722084299873-4.719357660082488E-5i
-6.089362142641751        0.8793970604609234       10.343723414370672-4.7482335983876826E-5i
-7.028661597569731        2.058837119679079        10.677481916660454-4.675559414520366E-5i
-6.551014771820592        1.7536904557824406       10.619730204122332-4.694763964565028E-5i
-7.521912697656728        2.9401597827940265       10.869002584125283-4.639590967615955E-5i
-8                        3.235294117647051        10.916335619520032-4.6302244030988665E-5i
-6.980343261513477        2.677688424918171        10.84358581436609-4.6482728635771375E-5i
-7.54959892297236         3.4987917439162985       10.970254982205894-4.620537741228902E-5i
-8                        3.8235294117646963       11.006016175998854-4.613073349153823E-5i
-1.8360245941255702       -0.6696664620107637      9.661491373475458-6.121578194713058E-5i