% Model:              VLR_3_01V03.mph
% Version:            COMSOL 5.5.0.292
% Date:               Jun 21 2020, 19:11
% Dimension:          2
% Nodes:              2196
% Expressions:        1
% Description:        Electric potential
% Length unit:        cm
% x                       y                        V2 (V)
1.3975597248931402        0.9792650521516945       10.52168816563765-2.90707013327628E-5i
1.149066861522912         0.964181179939686        9.999932521804828-3.19016074431375E-5i
1.2990382497578632        0.7499997504439765       9.999932521804793-3.1894312221568034E-5i
1.5478834455694948        0.7243216781543769       10.385009142414903-2.9142387613262325E-5i
1.409539002854417         0.5130300180614935       9.999932521804775-3.188627106491016E-5i
1.6532225732202028        0.4444469805412262       10.23674857266167-2.9180769408208205E-5i
1.4772116647960043        0.2604720664305813       9.999932521804762-3.1877725999551465E-5i
1.7048943457188634        0.14945145655125314      10.079064727927731-2.922200969000561E-5i
1.5                       0                        9.999932521804752-3.1868924792325096E-5i
1.7050471014265993        -0.14986225372526812     9.92058268017955-2.921221789149562E-5i
1.4772106593504082        -0.26047776853607507     9.99993252180475-3.1860123345177134E-5i
1.6528431071871037        -0.44484615830307667     9.763200498638456-2.916131688929765E-5i
1.4095354215180553        -0.5130398575996976      9.999932521804734-3.185157800810365E-5i
1.2067525733894784        1.2060745329603901       10.649977127504895-2.895444585874549E-5i
0.9641816539097096        1.149066463814838        9.999932521804853-3.190793025902558E-5i
0.9800142471640478        1.396130279696611        10.760645544697072-2.8834243312598536E-5i
0.7500003944253057        1.2990378779550218       9.999932521804864-3.191307838283528E-5i
1.5485642454772597        -0.7238793039226736      9.61450664953749-2.9100612737559312E-5i
1.2990309378135554        -0.7500124149660692      9.999932521804707-3.1843536537888174E-5i
0.727530543942857         1.5495970139866841       10.873794280500645-2.8631681059254966E-5i
0.5130308300018143        1.4095387073321717       9.999932521804865-3.191688306400067E-5i
0.44605301266128206       1.6539548084291964       10.943848317859313-2.852399509012723E-5i
0.2604733176110247        1.4772114441787627       9.99993252180486-3.1919217102422334E-5i
1.3985968233891881        -0.9806742573562072      9.474025299789973-2.8999391264008207E-5i
1.1490229531109146        -0.9642335055494975      9.999932521804688-3.183623967090956E-5i
0.14942980781708287       1.7079835202115226       10.983916967074242-2.845269754879504E-5i
0                         1.5                      9.999932521804851-3.1920007553089894E-5i
1.2071092083872477        -1.2077737371536554      9.345211970088108-2.8873076652976172E-5i
0.9641857194123948        -1.149063052439335       9.999932521804691-3.182991839395683E-5i
-0.15127982919851696      1.709198197915998        10.989739838832223-2.8432049481323473E-5i
-0.2604759007468612       1.4772109886979958       9.999932521804844-3.1919216517597956E-5i
0.9799754088859804        -1.398944429963196       9.230736354754159-2.8730450452321928E-5i
0.750010070993209         -1.2990322911339665      9.999932521804682-3.1824769906316366E-5i
-0.4463774375311925       1.6549017360682177       10.947986207317188-2.8509120642386266E-5i
-0.5130374076931423       1.409536313227687        9.999932521804832-3.191688188357376E-5i
0.7232910606847538        -1.5487816229491322      9.135045370705667-2.858876793281976E-5i
0.5130374076931423        -1.409536313227687       9.999932521804695-3.1820964674238654E-5i
-0.725468628438513        1.5510905807738333       10.876304203376522-2.8623837148937923E-5i
-0.750010070993209        1.2990322911339665       9.99993252180484-3.1913076617967495E-5i
0.4440682181871146        -1.6511679809926456      9.069256797096942-2.8488041025037824E-5i
0.2604759007468612        -1.4772109886979958      9.999932521804714-3.1818630073972935E-5i
-0.9814465305437738       1.4020817495291906       10.781230679620196-2.8753514190906688E-5i
-0.9641857194123948       1.149063052439335        9.999932521804835-3.190792810407768E-5i
0.14964776965821747       -1.705960853718946       9.024635457257345-2.8396908800078846E-5i
0                         -1.5                     9.99993252180472-3.1817839069764567E-5i
-1.209183213517786        1.2110074563649078       10.666147095757823-2.88838788080395E-5i
-1.1490229531109146       0.9642335055494975       9.999932521804828-3.1901606799106444E-5i
-0.15061924591659484      -1.70627326918615        9.02296760599196-2.8390993547624687E-5i
-0.26047776853607507      -1.4772106593504082      9.999932521804734-3.1818629608931586E-5i
-1.4015050070433888       0.9836641168823215       10.53593965271942-2.899650498650321E-5i
-1.2990309378135554       0.7500124149660692       9.999932521804812-3.1894309904837595E-5i
-0.44294316553571755      -1.6551155907325297      9.054168063158896-2.843500353787244E-5i
-0.5130398575996976       -1.4095354215180553      9.999932521804714-3.1820963715939E-5i
-1.5494744090857253       0.7241011421264525       10.386855421266718-2.9126116978504617E-5i
-1.4095354215180553       0.5130398575996976       9.999932521804801-3.188626841830788E-5i
-0.7264481595446606       -1.5569964505147067      9.10073207130962-2.8461493383858556E-5i
-0.7500124149660692       -1.2990309378135554      9.999932521804697-3.18247684940579E-5i
-0.9844603279070855       -1.4024624186467396      9.212284078534216-2.8655051482036745E-5i
-0.9642335055494975       -1.1490229531109146      9.999932521804698-3.18299178627139E-5i
-1.651792726526354        0.4445641576045677       10.235516318410278-2.9196796369639798E-5i
-1.4772106593504082       0.26047776853607507      9.999932521804782-3.187772308463996E-5i
-1.2119126523476957       -1.210384975166371       9.33025710193941-2.88037752500781E-5i
-1.149063052439335        -0.9641857194123948      9.999932521804707-3.183623898656618E-5i
-1.7060750737095782       0.15021888271383266      10.079790177977658-2.9207460518414747E-5i
-1.5                      0                        9.999932521804745-3.186892164871694E-5i
-1.7083142640548297       -0.14976307212566206     9.919580284080967-2.9174313506848983E-5i
-1.4772109886979958       -0.2604759007468612      9.999932521804721-3.186012033182069E-5i
-1.403820894202885        -0.9821205575064662      9.462692402755776-2.8934964390410467E-5i
-1.2990322911339665       -0.750010070993209       9.999932521804698-3.1843533971874536E-5i
-1.551690663841669        -0.7237128178695356      9.610419763917717-2.906724255332629E-5i
-1.409536313227687        -0.5130374076931423      9.999932521804698-3.1851575188290366E-5i
-1.6554509972700804       -0.44422017181652806     9.761333859085433-2.9133597010224247E-5i
0.9847230645340913        0.5050330166939598       9.999932521804952-3.188847323310178E-5i
1.2008648344332253        0.4979193201932035       9.999932521804775-3.188816796629597E-5i
1.0807768060422045        0.7224413440004743       9.999932521804803-3.189688163839523E-5i
0.9192416125180489        0.9192360185584644       9.999932521804844-3.190454986975668E-5i
0.8313272910502476        0.6678774959315521       9.999932521805007-3.1894806708328214E-5i
0.7153895190447785        0.8566739894903068       9.999932521804999-3.190215397864444E-5i
0.7224441620852138        1.0807749222983452       9.99993252180486-3.191087144452687E-5i
1.2748898793617054        0.2542750390838555       9.999932521804759-3.1878741103405534E-5i
1.0224128903168839        0.29599006887008583      9.999932521804977-3.188037643276406E-5i
1.1000394500664892        0.08964047751280829      9.999932521804935-3.1872390679833566E-5i
1.3                       0                        9.999932521804753-3.1868924776881816E-5i
1.2748902800748012        -0.25427302997131845     9.99993252180475-3.185910847134447E-5i
1.0610299183128573        -0.12096244923492275     9.999932521804967-3.186424597840362E-5i
1.0596055206129462        -0.3394856756542466      9.999932521804922-3.1855792735903565E-5i
1.2008674665427264        -0.49791297211385643     9.999932521804727-3.184968161197147E-5i
0.9467820609760702        -0.5052548130729154      9.999932521804938-3.184936207251919E-5i
1.080783263646725         -0.7224316832899383      9.999932521804695-3.184096779762425E-5i
0.4979217638008312        1.2008638212276481       9.999932521804862-3.191558950555029E-5i
0.506476331786558         0.9410708427980866       9.999932521805038-3.190546445073294E-5i
0.3316141418675122        1.0762888869531588       9.999932521805002-3.191074706859673E-5i
0.2542774865505297        1.274889391215389        9.999932521804862-3.191850667310351E-5i
0.9192399636727167        -0.9192376674108731      9.999932521804693-3.183329876167991E-5i
0.8095056677279252        -0.6838518544522508      9.999932521804949-3.184241885388546E-5i
0                         1.3                      9.999932521804846-3.1919499943878976E-5i
0.10931980786731789       1.064593217881322        9.999932521805045-3.191030433312507E-5i
-0.10393032726764048      1.1209472354201107       9.999932521804995-3.191250048441922E-5i
-0.2542726496649377       1.2748903559257052       9.999932521804837-3.191850609756403E-5i
0.722434315397021         -1.0807815042536755      9.999932521804682-3.182697655081139E-5i
0.6368844629499694        -0.8395735824827906      9.999932521804949-3.1836347059280035E-5i
-0.49791577134374276      1.2008663059005218       9.999932521804826-3.191558841077749E-5i
-0.3053391794608046       1.0335196511967168       9.999932521805034-3.190908259049236E-5i
0.5084580515760682        -0.9864169887835698      9.99993252180489-3.1830619087714095E-5i
0.49791577134374276       -1.2008663059005218      9.999932521804688-3.182225815996683E-5i
-0.5126260877670702       0.9848384949288346       9.999932521805002-3.190716546529892E-5i
-0.722434315397021        1.0807815042536755       9.999932521804842-3.1910869984419016E-5i
0.2542726496649377        -1.2748903559257052      9.999932521804713-3.181934051058525E-5i
0.30441895262960145       -1.0265167154650547      9.999932521804936-3.182903664240538E-5i
-0.9192399636727167       0.9192376674108731       9.999932521804835-3.190454773849414E-5i
-0.6753386092608932       0.8357571304674056       9.999932521805023-3.190134566498316E-5i
0.09303996630995835       -1.109229376845453       9.9999325218049-3.1825802525101746E-5i
0                         -1.3                     9.999932521804721-3.181834669485198E-5i
-0.8531621289884193       0.7147457534798374       9.999932521804983-3.189661965055194E-5i
-1.080783263646725        0.7224316832899383       9.999932521804816-3.189687866772741E-5i
-0.25427302997131845      -1.2748902800748012      9.999932521804723-3.1819339946701704E-5i
-0.10538155234965872      -1.0659210831003534      9.999932521804924-3.182749041413005E-5i
-0.3309785191594261       -1.0518819784006919      9.999932521804892-3.18280502188598E-5i
-0.49791297211385643      -1.2008674665427264      9.999932521804707-3.18222569829782E-5i
-1.2008674665427264       0.49791297211385643      9.999932521804803-3.188816482569507E-5i
-0.9395818995731745       0.5163281894979804       9.999932521804999-3.188891434809562E-5i
-0.7224316832899383       -1.080783263646725       9.999932521804705-3.182697483728001E-5i
-0.510399172809512        -0.9339474656970057      9.999932521804917-3.183265972814746E-5i
-1.062896677181684        0.3387977857500095       9.999932521804952-3.188202678130239E-5i
-1.2748902800748012       0.25427302997131845      9.999932521804782-3.18787379607863E-5i
-0.7189976595822637       -0.8618054782722095      9.999932521804876-3.183549378001962E-5i
-0.9192376674108731       -0.9192399636727167      9.999932521804702-3.1833296558673504E-5i
-1.0807815042536755       -0.722434315397021       9.999932521804714-3.1840965184228934E-5i
-0.8319228040530704       -0.666498582512621       9.99993252180492-3.184309343132516E-5i
-1.3                      0                        9.99993252180474-3.186892166778216E-5i
-1.0664996676627645       0.10472812591542703      9.999932521804965-3.187297241448185E-5i
-1.127842537973944        -0.10191755939636227     9.9999325218049-3.18649818331519E-5i
-1.2748903559257052       -0.2542726496649377      9.999932521804709-3.185910546224801E-5i
-1.2008663059005218       -0.49791577134374276     9.999932521804695-3.1849678685350317E-5i
-1.0319755508591002       -0.2986993336941238      9.999932521804928-3.185736601115917E-5i
-0.9965377364775745       -0.5119901962187896      9.999932521804878-3.184910540064694E-5i
4.470509997809495         4.730729336298896        19.47032379810722-7.134853619674639E-7i
4.570576436064643         4.663940347306893        19.282695924850433-9.70277003743967E-7i
4.59980102087764          4.820318846499434        19.062290007041238-1.259171484938802E-6i
4.400941308941275         4.85614318498409         19.481754286119568-6.96338841757364E-7i
4.507322340672047         5                        19.23158756068935-1.0307087336997491E-6i
4.7183603442686195        5                        18.714667709046992-1.7178934041478838E-6i
4.455019858931651         4.63033996297325         19.702070834665136-4.0261046360169845E-7i
4.326293011359069         4.682839726375187        19.769602302374746-3.1015058957855206E-7i
6.3016197756945775        5                        15.665078391683972-5.452444350399071E-6i
6.062498454368708         5                        15.948251879863333-5.140827133419464E-6i
6.188469185622886         4.787008842745895        15.773169627087768-5.338326045843462E-6i
6.442426048273921         4.754167458294307        15.497450317381434-5.63593782651516E-6i
6.591793948959259         5                        15.384320540256866-5.751741520642558E-6i
4.823579818931422         4.822480005858524        18.42856333114096-2.099550100656269E-6i
4.929398347865192         5                        18.147886430665686-2.460415270410691E-6i
5.14153824367169          5                        17.610153314578977-3.1498732250336936E-6i
5.043842932424522         4.8151625963410645       17.82919637721996-2.8776608709251274E-6i
5.361552230619921         5                        17.115684165397774-3.7671615268170667E-6i
5.2662169534071825        4.805476604636121        17.294721809321008-3.5527362627513656E-6i
5.590913904525575         5                        16.670375179054705-4.3064542820612084E-6i
5.496052586355981         4.806960696508838        16.822122207713992-4.13063188729539E-6i
5.826632450349006         5                        16.27976318070984-4.764484028584156E-6i
5.738757144843869         4.784084968324271        16.391888904789273-4.640681750064804E-6i
5.953589691281373         4.786565775258243        16.071992249890283-5.0066111933208E-6i
4.7229832074584435        4.651024435281763        18.73491863567745-1.709229998740312E-6i
4.6166920741597846        4.5765092395936335       19.171885448356296-1.1298107726270243E-6i
4.688349262175061         4.529166155927989        18.832642491033052-1.598129031096147E-6i
4.5                       4.55                     20
4.601551465100779         4.488415259451525        19.225401284351477-1.07304378016567E-6i
4.7035960414646           4.435467110704434        18.65395183992951-1.8634491216461208E-6i
4.614794460417483         4.387132504154806        18.923551041571642-1.5181697611539557E-6i
4.142992566895964         4.822044097505991        19.800581542514767-2.680403603907885E-7i
4.286238201323949         5                        19.610326587701852-5.234493546245869E-7i
4.168925928676451         4.640621502864087        19.91360107189874-1.1619240839855829E-7i
4.388423544709806         4.55                     20
4.257237873548844         4.55                     20
4.03969813323029          4.667523992509687        19.9309330193842-9.284932041165608E-8i
6.077055216279728         4.615621450014494        15.861899366867794-5.2505816918485525E-6i
6.293625927839017         4.565698372908326        15.596528562362563-5.539969601325363E-6i
6.963512629991141         5                        15.113314200202405-6.030964589515322E-6i
6.80054868946915          4.656179278655579        15.18092722181097-5.966257828971643E-6i
6.5587288932299455        4.480254001363501        15.31478720057949-5.83781793988184E-6i
7.197586343084033         4.599657646050701        14.940562465929775-6.206068042042441E-6i
7.4398480973971575        5                        14.895022497366183-6.24855909674255E-6i
7.6250900135490935        4.6279924179785095       14.80724279361181-6.334559160348294E-6i
8                         5                        14.807108046973823-6.334247459618367E-6i
8                         4.411764705882353        14.711461879299025-6.426247817680751E-6i
4.935929482787084         4.644840152559121        18.05662784459364-2.6036244756883044E-6i
5.1663947478845715        4.618178814992626        17.442380958424923-3.3902035404572016E-6i
5.387929553970716         4.59255395806421         16.946343143232784-4.0034764571039965E-6i
5.606222554026397         4.627335250288937        16.558827546477534-4.459376920925253E-6i
5.848262720826229         4.538898285919949        16.13635963254316-4.9539390654546854E-6i
4.701432300311466         4.333682401337794        18.45083242985618-2.174381203938765E-6i
4.626714308599947         4.302472160176626        18.6205207992782-1.9670099935691296E-6i
4.828051969739491         4.498793541668437        18.281147624703067-2.3397997508528624E-6i
4.787396791043321         4.375612801686055        18.24744765646817-2.423049230313898E-6i
4.5                       4.45                     20
4.537100001581853         4.3178310941721705       18.96839615796378-1.49491714626922E-6i
4.684880646648854         4.2325951021446775       18.245496191884857-2.4985744873500245E-6i
4.5900413459023905        4.218539829920662        18.460431782524555-2.233578570715176E-6i
3.9097762750053304        4.6398409131213345       19.96637045228884-4.520327684261969E-8i
3.890806012327387         4.789543080278763        19.924590026500912-1.0135536045542768E-7i
3.801665377305482         4.642137492818224        19.97647995480129-3.161298286593406E-8i
4.023255911235964         5                        19.84003580317553-2.1497772230703613E-7i
4.117732136407559         4.55                     20
3.978147996190352         4.55                     20
3.8385638559731454        4.55                     20
3.6758567360441496        4.722659728271472        19.9728642747594-3.647150683323935E-8i
3.698979715755938         4.55                     20
6.103800308024421         4.383109371844688        15.72596062182962-5.4203494949685404E-6i
6.34369234712916          4.349391963754359        15.452723531292753-5.708047340180142E-6i
6.520500406242025         4.203865860319558        15.216490073284984-5.958922279545756E-6i
6.8822576889323           4.24005520521214         14.978356746425195-6.183055695792301E-6i
7.4880156272642715        4.128539737959489        14.665604486991047-6.474241041749005E-6i
8                         3.823529411764707        14.432908154089185-6.686104789156251E-6i
5.039905134548794         4.458490415406646        17.628024743440736-3.1909261689517684E-6i
5.278535781292526         4.391237457227559        17.018598139922187-3.958150494309663E-6i
5.574474248232817         4.3685524133016935       16.455239944024076-4.621842621073923E-6i
5.883939883094996         4.207018772407315        15.88066661428958-5.28751334371334E-6i
4.792109143633454         4.268422802611072        18.027761776996854-2.75559923001237E-6i
4.921690837683132         4.338858539861298        17.792743697451666-3.021991578088632E-6i
4.746063951998926         4.155128802000056        17.893938783535294-2.993868282287613E-6i
4.387412538980868         4.45                     20
4.430895700173954         4.330921485753628        19.301032599797235-1.0410075331577592E-6i
4.490863148039946         4.212986499976745        18.676103497616364-1.9636262711613693E-6i
4.6583032441830685        4.115235300389873        17.994560525246555-2.902756287002198E-6i
4.561108959660585         4.1105927250312515       18.186672307231248-2.6744567523173754E-6i
3.516298584217904         4.8182617980445235       19.97789422233413-2.9710726331565607E-8i
3.4976383697612965        4.666137878390051        19.989864656665112-1.3622209617820122E-8i
3.7064889100298406        5                        19.94688843205787-7.138265774906102E-8i
7.5203266349500115        3.5068076050687838       14.262916715040484-6.849707155500014E-6i
8                         3.2352941176470598       13.993294302293483-7.07129833791064E-6i
7.520403368716676         2.922794695279361        13.74231911111623-7.296280966649617E-6i
8                         2.647058823529412        13.422687183391924-7.5221164091356905E-6i
3.387633216190236         4.701603897063978        19.991153564559443-1.1889846481290326E-8i
4.254962524005343         4.45                     20
4.312305880108264         4.328992991030862        19.43944114319063-8.648531229335494E-7i
4.115502084124465         4.45                     20
4.1795168517539905        4.321732073393307        19.48956114303797-8.177538825986288E-7i
3.5593955755387303        4.55                     20
3.419811435321524         4.55                     20
6.226112308681223         4.085965783541582        15.406181403833257-5.792845695336806E-6i
6.598957604388417         3.8879891268756657       14.950582525126636-6.25008663932415E-6i
7.016993522516366         3.727867382750114        14.593055988060582-6.572864653508047E-6i
5.109154306316322         4.255166113180823        17.224840337795243-3.756005293178104E-6i
5.362026521715413         4.161692991310424        16.6206503321815-4.496109488644083E-6i
5.6545436110744784        4.060722745890473        16.05824815163298-5.143073655880235E-6i
5.91137096356772          3.9120570153943928       15.59141083095348-5.660874731626004E-6i
4.923430497403378         4.137625363039235        17.44860649816363-3.5464096460068865E-6i
4.767827052217059         4.021266307266436        17.532763265729077-3.534372328178322E-6i
4.376280620917171         4.203585220097828        18.842292874308303-1.7678917920789294E-6i
4.450607106723316         4.096700082189579        18.344112018733416-2.5036512107595273E-6i
4.62569350599251          4.003383011770904        17.757948464010607-3.294746431085474E-6i
4.521139419993688         4.020571739767261        17.989033684040166-3.0119897553858078E-6i
3.3126513203767196        5                        19.986476095613245-1.8176440564982207E-8i
3.2113659945483706        4.695328187732062        19.99540588560915-6.174604148879356E-9i
3.0706664791820226        4.7974913715328285       19.99559436844011-5.921276065229634E-9i
3.0707925203973767        4.658804165279605        19.997852743845637-2.8859648992976188E-9i
2.9302279586994806        4.701201267133138        19.99821971664403-2.392744112449645E-9i
7.042661495077465         3.1800554964415078       14.114552361073494-7.0316916167680285E-6i
7.517733058399758         2.346098713459754        13.11849764134415-7.767652335342096E-6i
8                         2.0588235294117663       12.752550501290932-7.974693340957618E-6i
7.041699023872819         2.621453415529646        13.524289257424073-7.546066978479701E-6i
3.280227295104316         4.55                     20
3.140643154887109         4.55                     20
3.0010590146699014        4.55                     20
2.8614748744526946        4.55                     20
2.758283305033959         4.698431150653177        19.999029843440578
3.975993538899905         4.45                     20
4.039266726562798         4.32119253720734         19.53626982548335-7.715561389609023E-7i
4.2503251201082595        4.189878687158406        18.936321577702866-1.6796231755857238E-6i
4.104737132087176         4.190323667497516        19.04497756628056-1.5662905893953183E-6i
3.836484993675345         4.449999999999999        20
3.9008364371735484        4.320995435231449        19.566025937043722-7.485135937868835E-7i
3.696976448450785         4.45                     20
3.7652532436441324        4.32185394340554         19.589250263879396-7.331004705675975E-7i
3.557467903226226         4.449999999999999        20
3.6265740945601075        4.324394350379354        19.612020635127184-7.163950604699948E-7i
6.230595713967705         3.6710438623285784       15.050189889929003-6.225244239811508E-6i
6.585290506046706         3.4104758555083983       14.549507095581616-6.691201587833218E-6i
5.677449296714592         3.8246306854643723       15.771878640214501-5.526624314904686E-6i
5.163842222770168         3.998237946355047        16.747817230941674-4.435365668121557E-6i
5.426234415150392         3.8978704884549664       16.193164712667585-5.077489920428142E-6i
5.8539118182502605        3.597565529378082        15.314233426995742-6.047264948492981E-6i
4.949620758481706         3.8647474316715376       16.879126319581662-4.396907925362229E-6i
4.7063685833237034        3.848369572502839        17.234847152297817-4.047719620471902E-6i
4.327815850666891         4.063540198305643        18.407161985428704-2.483602909912636E-6i
4.427809726966615         3.968388951929443        17.975086153040277-3.104260242426698E-6i
4.546870961599838         3.8942224967961367       17.593296213882237-3.617083581017042E-6i
2.7218907342354877        4.55                     20
2.6294573509927717        4.630394675421529        19.999655688374105
2.58230659401828          4.55                     20
2.5269698315352835        4.624254688131006        19.999776718783508
2.5747324431476146        4.759183840734792        19.99931262852874
2.832025476114458         5                        19.997448018093646-3.4299250960707048E-9i
7.612991067149926         -4.617603815742373       5.193322168533841-6.333070172441312E-6i
7.412072949980371         -5                       5.096851105015712-6.238466114147921E-6i
8                         -5                       5.193768295805552-6.3329915547199516E-6i
8                         -4.411764705882343       5.289393730351625-6.424952578069923E-6i
7.144464703743313         -4.596636501408036       5.036337430258874-6.181452816059796E-6i
6.566418579886533         2.8930846738415297       14.005542131239226-7.250649811065527E-6i
7.519888186320846         1.7614724266158817       12.404297278280977-8.213225615205943E-6i
8                         1.4705882352941193       12.011642066290696-8.370328151737082E-6i
7.039974979748431         2.0481307230773433       12.831301229146783-8.064542703727573E-6i
6.564030656888684         2.330415859569207        13.313226650682369-7.87898499750532E-6i
7.521008859770601         1.1746970164917672       11.631737316326337-8.573767135224147E-6i
8                         0.8823529411764723       11.224376597825577-8.6615585603982E-6i
3.9590131295082966        4.194100786586108        19.126276661840336-1.4873863572732216E-6i
4.0271804810594904        4.084499152316603        18.733104438460018-2.1254123166166296E-6i
4.167462003118329         4.023888715404008        18.43843821724786-2.5358129578824807E-6i
3.829006192173408         4.18882313783669         19.151521437794177-1.4924862577380079E-6i
3.7016410123449104        4.196909956001649        19.20734996403419-1.4384997598129377E-6i
3.4179593580016676        4.45                     20
3.487262221090444         4.323365335332292        19.61972559569389-7.258492491723814E-7i
3.2784508127771077        4.45                     20
3.349310619024401         4.320870217266199        19.620404969507742-7.480200187847455E-7i
3.552739368224219         4.2053863167637004       19.2586850820359-1.3941668917098488E-6i
6.081682072704875         3.201007319250936        14.648697661069928-6.75744995799201E-6i
5.497123665152909         3.597537295716735        15.69352860058268-5.7392838081578505E-6i
5.212586837553796         3.6723252904732955       16.154893281386908-5.278911530559514E-6i
5.640977288774908         3.318105891100278        15.15532433318115-6.37405311038883E-6i
4.995431968043851         3.577833356841067        16.266336843385645-5.290064805494227E-6i
4.781723862401614         3.6452094517231313       16.67226674431137-4.8598151798035985E-6i
4.579617608140941         3.7009277326772554       17.055803065065707-4.44380071356528E-6i
4.2981087795703665        3.8941535054496548       17.9099892796501-3.310766094620279E-6i
4.421866189060781         3.792392103130273        17.481965754453046-3.9031221112943704E-6i
2.3706654938163747        4.687131323650975        19.999770543089355
2.442722453801073         4.55                     20
2.27983297296597          5                        19.99962191715902
6.851490434470424         -5                       4.815724587337412-5.956697494637201E-6i
6.628176577206993         -4.640965075687651       4.693284133684693-5.836437030090287E-6i
7.521636328736939         0.587378489093052        10.824168917458367-8.806981600148425E-6i
8                         0.29411764705882604      10.411117213537644-8.815454534220005E-6i
7.50256497128716          -4.120837685429832       5.342726933894164-6.479837034548921E-6i
8                         -3.8235294117646963      5.567930414417721-6.684788499706605E-6i
6.863440447064639         -4.197414721950226       5.032241621198444-6.193995951956227E-6i