% Model:              VLR_3_01V03.mph
% Version:            COMSOL 5.5.0.292
% Date:               Jun 21 2020, 19:13
% Dimension:          2
% Nodes:              2411
% Expressions:        1
% Description:        Electric potential
% Length unit:        cm
% x                       y                        V2 (V)
-1.5535674301118985       -0.7250537289575332      9.323430580175069-9.585477460048458E-6i
-1.2990322911339665       -0.750010070993209       10.000019363089944-1.0925260795550248E-5i
-1.409536313227687        -0.5130374076931423      10.000019363089914-1.0939502698806965E-5i
-1.4071150951701807       -0.9867280394613388      9.047608650610378-9.452984592500104E-6i
-1.149063052439335        -0.9641857194123948      10.000019363089956-1.091230471019613E-5i
-1.6548609614837          -0.44408964578145776     9.592682112290339-9.669205506091731E-6i
-1.4772109886979958       -0.2604759007468612      10.00001936308989-1.0954608514557146E-5i
-1.7066719012616387       -0.14997715136248954     9.863471241797575-9.716377062995686E-6i
-1.5                      0                        10.000019363089885-1.097015225331703E-5i
-1.7060659870883783       0.14944879244641976      10.135781020729887-9.732918385073033E-6i
-1.4772106593504082       0.26047776853607507      10.000019363089889-1.0985696081105678E-5i
-1.2100014225004592       -1.2145155890832293      8.821395653374308-9.350774933783296E-6i
-0.9642335055494975       -1.1490229531109146      10.00001936308996-1.090103865776874E-5i
-0.9808588571512353       -1.4025658593635149      8.624051469821664-9.234828098675554E-6i
-0.7500124149660692       -1.2990309378135554      10.000019363089951-1.0891824101355903E-5i
-0.7253673467705514       -1.5535964295480897      8.425627746313141-9.080385085835977E-6i
-0.5130398575996976       -1.4095354215180553      10.000019363089939-1.0884988230209557E-5i
-1.651596829938444        0.4435870166023558       10.401828883181976-9.726018683440965E-6i
-1.4095354215180553       0.5130398575996976       10.000019363089898-1.1000801843902926E-5i
-1.550243368292198        0.7242237410808803       10.667233320751928-9.667713840119625E-6i
-1.2990309378135554       0.7500124149660692       10.000019363089908-1.1015043629246953E-5i
-0.4447180321313081       -1.6552641809998263      8.298842331869778-8.979369727950788E-6i
-0.26047776853607507      -1.4772106593504082      10.000019363089931-1.0880780654041447E-5i
-1.398102206011652        0.9800953933977085       10.906375093527357-9.60831310643227E-6i
-1.1490229531109146       0.9642335055494975       10.000019363089928-1.102800226663159E-5i
-1.2064978915402866       1.2066454760128513       11.134708744538107-9.51128221186457E-6i
-0.9641857194123948       1.149063052439335        10.000019363089953-1.1039267754172657E-5i
-0.15018526690060952      -1.7088889691935722      8.217253658180775-8.906664173287898E-6i
0                         -1.5                     10.000019363089926-1.0879352488346058E-5i
-0.9779036178621328       1.3976863746452828       11.340851779193855-9.397450638469862E-6i
-0.750010070993209        1.2990322911339665       10.000019363089951-1.104847976092905E-5i
0.15000289988867863       -1.7097266037611216      8.210781478953697-8.899519018264494E-6i
0.2604759007468612        -1.4772109886979958      10.00001936308995-1.0880780383473658E-5i
-0.7209926588856781       1.5469138559556188       11.520256246636722-9.275036236898275E-6i
-0.5130374076931423       1.409536313227687        10.000019363089965-1.1055315403757745E-5i
0.4448652850238319        -1.6510778323190989      8.329293001658025-9.013246112528284E-6i
0.5130374076931423        -1.409536313227687       10.000019363089985-1.0884987898414106E-5i
-0.4407811725606484       1.6513914799981715       11.666348600088725-9.158637788742698E-6i
-0.2604759007468612       1.4772109886979958       10.000019363089992-1.1059522775794197E-5i
0.7224899742198758        -1.5476720633075396      8.471208384450412-9.132585097834513E-6i
0.750010070993209         -1.2990322911339665      10.000019363090018-1.0891823571515163E-5i
-0.14780824255943478      1.6971757613181508       11.69015829387133-9.154012562918988E-6i
0                         1.5                      10.000019363090022-1.1060950641415238E-5i
0.9782868638470064        -1.4004744057196878      8.642972808929464-9.257894113139404E-6i
0.9641857194123948        -1.149063052439335       10.00001936309005-1.0901035573619535E-5i
0.14897609732724182       1.7097893529747725       11.78906562413732-9.04270183264888E-6i
0.2604733176110247        1.4772114441787627       10.000019363090047-1.1059522591238345E-5i
1.205911937365765         -1.2112725388739345      8.847735382198628-9.385704658927262E-6i
1.1490229531109146        -0.9642335055494975      10.00001936309007-1.0912301046292732E-5i
0.5130308300018143        1.4095387073321717       10.000019363090097-1.1055315088103248E-5i
0.45101168048599277       1.66408161919761         11.775648264530636-9.033622838106273E-6i
1.3994638582947576        -0.984704448732699       9.075716126693125-9.498388618958788E-6i
1.2990309378135554        -0.7500124149660692      10.000019363090079-1.0925259702185134E-5i
0.7500003944253057        1.2990378779550218       10.000019363090127-1.1048479518112173E-5i
0.7335730054743848        1.55318610714133         11.591822463204624-9.189591667596696E-6i
1.5524680586012898        -0.7262814306151539      9.323424814904003-9.587768664835162E-6i
1.4095354215180553        -0.5130398575996976      10.000019363090086-1.0939501501184537E-5i
0.9904751235912871        1.3996214002646141       11.388694755978667-9.335258456505204E-6i
0.9641816539097096        1.149066463814838        10.000019363090136-1.1039267202407099E-5i
1.651890024939124         -0.4442876927072807      9.596848231988856-9.684731572222288E-6i
1.4772106593504082        -0.26047776853607507     10.000019363090093-1.0954607273878054E-5i
1.2162907616822904        1.2083696225275338       11.172412102274125-9.457335500771502E-6i
1.149066861522912         0.964181179939686        10.000019363090134-1.102799822585253E-5i
1.7041408382310754        -0.1515849171930095      9.863242580365911-9.72915246590931E-6i
1.5                       0                        10.000019363090104-1.0970151098644003E-5i
1.706553965863823         0.14738079247870137      10.134036185265154-9.731261140550038E-6i
1.4772116647960043        0.2604720664305813       10.000019363090107-1.0985694599215878E-5i
1.2990382497578632        0.7499997504439765       10.000019363090113-1.1015041851501503E-5i
1.410257969066405         0.9818760506005706       10.946672007731541-9.540407271781905E-6i
1.5548996092692167        0.7201247300767353       10.669634257962583-9.654251909059748E-6i
1.409539002854417         0.5130300180614935       10.00001936309011-1.1000800174917589E-5i
1.6551575490770367        0.44015324254096144      10.40258615967093-9.712177120498658E-6i
-0.9965377364775745       -0.5119901962187896      10.0000193630901-1.0935081946957259E-5i
-1.2008663059005218       -0.49791577134374276     10.000019363089924-1.0936137076342878E-5i
-1.0807815042536755       -0.722434315397021       10.000019363089951-1.092069054878675E-5i
-1.2748903559257052       -0.2542726496649377      10.000019363089894-1.0952810354119656E-5i
-1.0319755508591002       -0.2986993336941238      10.000019363090127-1.0949707377574994E-5i
-1.127842537973944        -0.10191755939636227     10.000019363090065-1.0963185499579635E-5i
-1.3                      0                        10.00001936308988-1.0970152243741814E-5i
-0.9192376674108731       -0.9192399636727167      10.000019363089962-1.0907052410165676E-5i
-0.8319228040530704       -0.666498582512621       10.000019363090159-1.0924398588118434E-5i
-0.7189976595822637       -0.8618054782722095      10.00001936309011-1.0910892571774525E-5i
-0.7224316832899383       -1.080783263646725       10.000019363089955-1.0895765526297736E-5i
-1.0664996676627645       0.10472812591542703      10.000019363090109-1.097731640192665E-5i
-1.2748902800748012       0.25427302997131845      10.00001936308989-1.0987494126364219E-5i
-1.062896677181684        0.3387977857500095       10.000019363090074-1.099333346969008E-5i
-1.2008674665427264       0.49791297211385643      10.000019363089905-1.100416708174667E-5i
-0.49791297211385643      -1.2008674665427264      10.000019363089942-1.0887307545014423E-5i
-0.510399172809512        -0.9339474656970057      10.000019363090148-1.090581198029446E-5i
-0.3309785191594261       -1.0518819784006919      10.000019363090125-1.0897583220355297E-5i
-0.25427302997131845      -1.2748902800748012      10.000019363089931-1.088205946500688E-5i
0                         -1.3                     10.000019363089935-1.0880268410314275E-5i
-0.10538155234965872      -1.0659210831003534      10.000019363090159-1.0896563597129185E-5i
-1.080783263646725        0.7224316832899383       10.000019363089915-1.101961343924952E-5i
-0.9395818995731745       0.5163281894979804       10.00001936309013-1.1005543298955567E-5i
-0.8531621289884193       0.7147457534798374       10.000019363090114-1.1019212969132447E-5i
-0.9192399636727167       0.9192376674108731       10.000019363089946-1.1033251398651414E-5i
0.09303996630995835       -1.109229376845453       10.000019363090132-1.0893557379186255E-5i
0.2542726496649377        -1.2748903559257052      10.000019363089955-1.0882059273891842E-5i
-0.722434315397021        1.0807815042536755       10.000019363089947-1.1044538128513744E-5i
-0.6753386092608932       0.8357571304674056       10.000019363090168-1.1027636831309122E-5i
-0.5126260877670702       0.9848384949288346       10.00001936309015-1.1038009933145159E-5i
-0.49791577134374276      1.2008663059005218       10.00001936308996-1.1052995931732636E-5i
0.49791577134374276       -1.2008663059005218      10.000019363089995-1.0887307333316544E-5i
0.30441895262960145       -1.0265167154650547      10.000019363090196-1.0899332976898218E-5i
-0.2542726496649377       1.2748903559257052       10.000019363089985-1.1058243886317605E-5i
-0.3053391794608046       1.0335196511967168       10.000019363090189-1.1041455209153344E-5i
0.5084580515760682        -0.9864169887835698      10.000019363090187-1.0902182239586345E-5i
0.722434315397021         -1.0807815042536755      10.00001936309003-1.089576516075563E-5i
-0.10393032726764048      1.1209472354201107       10.000019363090173-1.1047558043573649E-5i
0                         1.3                      10.000019363090017-1.1060034703733655E-5i
0.9192399636727167        -0.9192376674108731      10.00001936309006-1.0907051887481617E-5i
0.6368844629499694        -0.8395735824827906      10.000019363090258-1.0912385044423857E-5i
0.2542774865505297        1.274889391215389        10.00001936309005-1.1058243651859491E-5i
0.10931980786731789       1.064593217881322        10.000019363090244-1.1043647055045572E-5i
1.080783263646725         -0.7224316832899383      10.00001936309007-1.0920689862516483E-5i
0.8095056677279252        -0.6838518544522508      10.000019363090273-1.092319393739677E-5i
0.3316141418675122        1.0762888869531588       10.000019363090226-1.104441151786341E-5i
0.4979217638008312        1.2008638212276481       10.0000193630901-1.1052995359420208E-5i
1.2008674665427264        -0.49791297211385643     10.000019363090082-1.093613624721113E-5i
0.9467820609760702        -0.5052548130729154      10.000019363090269-1.0935522620512816E-5i
0.7224441620852138        1.0807749222983452       10.00001936309013-1.1044537065463362E-5i
0.506476331786558         0.9410708427980866       10.000019363090301-1.1034985291070191E-5i
1.0596055206129462        -0.3394856756542466      10.000019363090248-1.0946921753483663E-5i
1.2748902800748012        -0.25427302997131845     10.000019363090084-1.0952809213890694E-5i
0.7153895190447785        0.8566739894903068       10.000019363090269-1.1029058623046619E-5i
0.9192416125180489        0.9192360185584644       10.000019363090141-1.1033250498610823E-5i
1.0807768060422045        0.7224413440004743       10.000019363090125-1.101961315978983E-5i
0.8313272910502476        0.6678774959315521       10.00001936309029-1.1015999754086663E-5i
0.9847230645340913        0.5050330166939598       10.000019363090258-1.1004749203307925E-5i
1.2008648344332253        0.4979193201932035       10.000019363090113-1.100416644301498E-5i
1.3                       0                        10.000019363090097-1.0970151091857677E-5i
1.0610299183128573        -0.12096244923492275     10.00001936309028-1.0961875725818805E-5i
1.1000394500664892        0.08964047751280829      10.00001936309025-1.0976280784807253E-5i
1.2748898793617054        0.2542750390838555       10.000019363090107-1.09874931263951E-5i
1.0224128903168839        0.29599006887008583      10.000019363090281-1.0990412841265825E-5i
-4.5965963447312275       -3.0846814713157134      0.9034087941879815-2.237226280052322E-7i
-4.5                      -3.05                    0
-4.59995701334916         -2.9984358349639435      0.9111875815585541-2.3559120844303547E-7i
-4.704341331042981        -3.0497973798039153      1.4573144998440826-3.6430459080426956E-7i
-4.677202240383523        -2.950206452016343       1.4477820326499147-3.771670181834812E-7i
-4.612121791472357        -2.9014032030366765      1.2344708635911312-3.3467221949346956E-7i
-4.5                      -2.95                    0
-4.5466019994273195       -2.830316979226342       1.235471008869511-3.5552196124970893E-7i
-4.5438797571364695       -3.1553690920368647      0.7907118818740361-1.9013148664885293E-7i
-4.655464608543262        -3.158772963961761       1.2567223830124516-3.0419760165137375E-7i
-4.787107893140775        -3.158332228336232       1.752319852271908-4.226175686345573E-7i
-4.828248613950578        -3.0565647036683354      1.9524484846870436-4.806433230790809E-7i
-4.4395286129236595       -3.1523469444622356      0.45925532137272257-1.0851825936332061E-7i
-4.387412538980868        -3.05                    0
-7.617633844235148        -4.59744884772797        4.35656208036236-8.8824232723055E-7i
-8                        -5                       4.352609714518353-8.87496103129771E-7i
-7.4062314829593525       -5                       4.2630893373503564-8.720121642244147E-7i
-8                        -4.411764705882353       4.440659207352017-9.025641466174314E-7i
-4.634754479635606        -2.817595674363427       1.6475030275469522-4.573380314496743E-7i
-4.705460958740431        -2.86044439993579        1.7982422838894367-4.803171471456688E-7i
-4.794712954587601        -2.945547880227506       1.9689564353095732-5.01630656485148E-7i
-4.932104450141409        -2.991157269752177       2.3679503266093715-5.831331323563906E-7i
-4.930280405539611        -3.141504512313559       2.2142926929164557-5.298131191322904E-7i
-4.604275659382985        -2.741857300172428       1.8361106217735428-5.27851578889293E-7i
-4.388423544709806        -2.9500000000000006      0
-4.437694392606802        -2.8380472274947985      0.8389937041683019-2.5759595227640084E-7i
-4.4967309570390315       -2.727148367318634       1.5897247292654575-4.83005588382592E-7i
-4.5678521220918284       -2.628169764989158       2.1928149603926275-6.567294253933428E-7i
-4.497936212017256        -3.2499312741538007      0.8644758418017181-2.028889114902719E-7i
-4.604662113363209        -3.2549445581505037      1.1813581834862978-2.791790944542744E-7i
-4.7245118340485135       -3.2632481410351946      1.563418335443962-3.6963518621587283E-7i
-4.879800565719706        -3.280105669234622       2.01560076388463-4.727320355233728E-7i
-4.3190526598146555       -3.157744518394655       0.3103689018670688-7.19240447496328E-8i
-4.254962524005341        -3.05                    0
-4.187124937086374        -3.1638864195797076      0.23899431299530807-5.4629322547399425E-8i
-4.3861569702440155       -3.2598036607809675      0.6515010482599622-1.5102247596434586E-7i
-4.451860280596956        -3.334478884066506       0.9191735095764517-2.126015386512811E-7i
-4.115502084124262        -3.05                    0
-4.048770223906336        -3.168724164237713       0.1942980501437552-4.398666509293607E-8i
-3.975993538899708        -3.05                    0
-3.908817481767394        -3.171810534686225       0.16226451646651865-3.6484687939037793E-8i
-3.8364849936751537       -3.05                    0
-3.7690924743491596       -3.1736272928201665      0.13780337452583333-3.083152236006072E-8i
-4.257237873548838        -2.9499999999999997      0
-4.315703623108924        -2.833952880776284       0.6833221853621051-2.2717349480335179E-7i
-6.8124629747288905       -5                       3.996362856075585-8.248667858176961E-7i
-7.1073317071136595       -4.470716893983402       4.2205211824289535-8.651759948722152E-7i
-7.574606031102736        -4.104762638774093       4.510312159096123-9.147739709163813E-7i
-8                        -3.823529411764707       4.70561406042162-9.468666078393214E-7i
-4.706062506545911        -2.751425470269543       2.131731186145228-5.874514045002319E-7i
-4.807911842012025        -2.796487413371146       2.3340216711142-6.163074013884466E-7i
-4.929813678090066        -2.8476307933890976      2.5936430682741896-6.577367301369971E-7i
-5.0683892468807965       -3.28557232937453        2.4860653144665688-5.755408870344773E-7i
-5.056068736467761        -2.894598815554996       2.853132853817461-7.003399525306649E-7i
-5.085829917546963        -3.078273294196154       2.6883374597017475-6.388804686033201E-7i
-4.676783066720064        -2.6368995401092645      2.4305059464444523-6.94648286705052E-7i
-4.3797370983893025       -2.7151164367729628      1.4053115733827273-4.5588833691505376E-7i
-4.445219536107801        -2.6049689397285154      2.0319398174613266-6.470423102070749E-7i
-4.519032611878469        -2.529801007727107       2.4759746849003306-7.697433405322371E-7i
-4.6303177123969235       -2.511394735507769       2.7611966202968703-8.20920749061734E-7i
-6.489414430256879        -4.5032897782095285      3.835766416164485-7.971371022411864E-7i
-4.5498634594865806       -3.352369494077931       1.1620322944346746-2.6969744282672885E-7i
-4.76399020337507         -3.378061752899561       1.7214136810174732-3.993040995091035E-7i
-4.6563168089471745       -3.3499763836374674      1.4269038746889646-3.323566133472843E-7i
-5.195170119113923        -3.4463658853836945      2.6754550842480667-6.040108186757924E-7i
-4.922658743009208        -3.4994903322324467      2.1087359088998814-4.801498900250884E-7i
-4.260007531581921        -3.2794549951761156      0.5247877212422872-1.2013785243674181E-7i
-4.123946718750482        -3.287284599180363       0.42257754358225746-9.583177867853706E-8i
-3.981404446599093        -3.2895807661887697      0.34410092718505364-7.748108532017047E-8i
-4.348556524529646        -3.384865348432496       0.8231958793479494-1.883022535195922E-7i
-4.472368995718           -3.4348477381918654      1.104776279674719-2.5319713967118606E-7i
-3.842239509871385        -3.3002991527875274      0.29903558126108026-6.697807677082766E-8i
-3.7024208412378856       -3.2954074442095207      0.2490912936253399-5.55778594747862E-8i
-3.6276157145368195       -3.1742470708509107      0.11773938297192767-2.6244349623789326E-8i
-6.220967788465945        -5                       3.562749238987941-7.452636805677589E-7i
-3.6969764484505987       -3.05                    0
-3.557467903226044        -3.05                    0
-3.4868758750100195       -3.1771140937176168      0.10375860592470305-2.3062951163340898E-8i
-3.41795935800149         -3.05                    0
-3.3478279104253232       -3.1780150639059377      0.09097298923322499-2.0177930342054742E-8i
-4.117732136407633        -2.95                    0
-4.186323649301493        -2.826764744849751       0.6332083181316398-2.2739918564438436E-7i
-3.9781479961904296       -2.95                    0
-4.050850111346765        -2.825563836995027       0.5869076161787591-2.2723762095013685E-7i
-4.254495071306323        -2.70333740681996        1.298054004728377-4.5190014349659245E-7i
-6.686204296999872        -4.068264750561599       4.127527116166329-8.521660455308586E-7i
-6.218661540708946        -3.9781831287561307      3.789836446953557-7.952959318340256E-7i
-7.105443524610569        -3.832689276500479       4.493410928808291-9.146652421348283E-7i
-7.546876491272114        -3.533557545506183       4.849149092786532-9.71562301336933E-7i
-8                        -3.2352941176470598      5.147675622913124-1.0171595090155659E-6i
-4.808912647786899        -2.6516429216984436      2.7268692364239198-7.42138793198567E-7i
-4.902508306321234        -2.722233014706497       2.788272374868041-7.289944674207927E-7i
-5.0283448232995145       -2.734490989622281       3.0764309505176874-7.78495920010435E-7i
-5.145860434738963        -2.7876624567861183      3.2443865347429957-7.952958356841276E-7i
-5.320259568167346        -3.1978809521787923      3.0851078263336364-7.049556345567775E-7i
-5.483054933743388        -3.5225538895981394      3.1356717324038925-6.913187867229368E-7i
-5.229253428288084        -2.936376976514982       3.1928268545438843-7.578335714627906E-7i
-4.779385032568074        -2.5156087173052564      3.0576967044629835-8.592892839081496E-7i
-4.328540519420588        -2.583259970440749       1.9416812191073909-6.571534089102694E-7i
-4.417453109370919        -2.47985957363982        2.501628513426849-8.195188203478836E-7i
-4.534583364371985        -2.4074225274979626      2.958382605834507-9.269643408595689E-7i
-4.686360427062799        -2.3681159300662045      3.343227787158124-9.896552747392575E-7i
-5.180202977335106        -3.7257222573676643      2.562288887527519-5.67377648821314E-7i
-5.5732184221734204       -4.003187396090898       3.058548112551747-6.586938727981758E-7i
-5.900323626269446        -4.507092727211834       3.3079687467207344-6.989133029585973E-7i
-4.6389944296192525       -3.519224178493679       1.5154614022839699-3.457331329715076E-7i
-4.859771700337898        -3.773469798328027       2.0212877177168376-4.5074909914263955E-7i
-4.194904352163086        -3.4240601536086395      0.6896335002650305-1.5613620298829137E-7i
-4.0589678824731035       -3.3846020366198335      0.5172404357585787-1.1657829350838236E-7i
-3.9221450323755196       -3.43218597228522        0.485125952989465-1.0867918739004376E-7i
-4.372232641363613        -3.5909404406528713      1.113978555644404-2.514490544071548E-7i
-3.5528616056128657       -3.2993362680372855      0.21527692665256445-4.788011576178356E-8i
-3.769556782899256        -3.439182906535264       0.4128021782803694-9.209424420477018E-8i
-3.6330754035232955       -3.4023064349660426      0.3251838726230664-7.237218744272081E-8i
-3.4175094807824546       -3.3111044569446935      0.19637427329250845-4.357769529087193E-8i
-3.277875707456028        -3.3037961544553873      0.16705317565096875-3.700696107726398E-8i
-5.631712714544701        -5                       2.988956478800454-6.348166358394716E-7i
-3.208255200965985        -3.1761025449616955      0.07849966752812741-1.7382510143926737E-8i
-3.1380372487192156       -3.3012180587194115      0.14537151091983183-3.215959605376312E-8i
-3.068895258825021        -3.1757787866739697      0.06893881619255103-1.5245657105424744E-8i
-3.278450812776935        -3.05                    0
-3.8385638559732254       -2.95                    0
-3.9118012796510873       -2.8258876370306822      0.5528143249706375-2.3032381044658244E-7i
-3.698979715756021        -2.95                    0
-3.7717261425002877       -2.824781203616974       0.5364024040443983-2.398959775701292E-7i
-3.5593955755388174       -2.95                    0
-3.6319108544218257       -2.823931114547633       0.5259133768107881-2.5179276686098213E-7i
-4.122030763328394        -2.6974544562006773      1.2163458768647162-4.551070686888973E-7i
-3.9890650929929037       -2.70327541786874        1.1196913236321662-4.491612042531196E-7i
-4.193668712903937        -2.562991746861584       1.8764465992916046-6.812968920522974E-7i
-5.8668706749461235       -3.6171223401666217      3.610421856580572-7.745080097443814E-7i
-6.191545919329597        -3.587312777436067       3.992367367644557-8.412497970930858E-7i
-5.675717865175023        -3.2406744310261972      3.644292796595995-8.030500995076712E-7i
-6.56716983571366         -3.557335796043089       4.347001169251983-8.986858982238285E-7i
-7.06669173157232         -3.2549389804011106      4.909655514133568-9.882430251191543E-7i
-7.534517660347059        -2.9501308479496497      5.372198382500787-1.0540519853508984E-6i
-8                        -2.647058823529412       5.761204956992228-1.1066350127449162E-6i
-4.953490347679513        -2.5725919428923723      3.275165840601372-8.647155837317023E-7i
-5.165892788521427        -2.6290076853762576      3.586593881813488-8.92024037008784E-7i
-5.282441302407384        -2.7534102657746677      3.5827437010531265-8.594972073221308E-7i
-5.504401466423252        -2.875349859157849       3.7918472421742893-8.695155115356355E-7i
-4.88309520863714         -2.3651424354488437      3.689828233981619-1.0196752910292703E-6i
-4.280663173320851        -2.433288414145178       2.509003007286209-8.80286443895093E-7i
-4.396679451125823        -2.3204165822994063      3.0807196205961813-1.0327236672818045E-6i
-4.549178082491667        -2.2340001666095346      3.5798868456212283-1.1313375085880772E-6i
-4.743047615415725        -2.1749940180290523      4.027548332448891-1.1857220193952265E-6i
-5.063162108141341        -4.109746074113433       2.3518642777389878-5.134535542323589E-7i
-5.303962623915973        -4.550064792422434       2.6395990757102883-5.668490386420492E-7i
-4.527891470607169        -3.8102390460399316      1.505527112803578-3.360435815879659E-7i
-4.702098950194312        -4.035761594293149       1.8395733230823972-4.057027233700557E-7i
-4.069814666365991        -3.590491969157736       0.7639714709008809-1.7110867570946835E-7i
-3.8536295783636634       -3.5698629151886427      0.580126935200429-1.2936031433706066E-7i
-4.206496416509147        -3.8223528127014816      1.0998349230721824-2.4487627739945E-7i
-3.4946650371747614       -3.4545964075005258      0.32113445405130087-7.127415044269578E-8i
-3.6493592225419156       -3.5968630308173664      0.489202566341353-1.0865158526226699E-7i
-2.999335928698814        -3.303584866166069       0.12961783601759855-2.8643397086299774E-8i
-3.3449507490157284       -3.4537687540514055      0.27756692626982277-6.149016514713241E-8i
-3.20608749976737         -3.4168317452274435      0.22296387489072927-4.93347720915605E-8i
-3.0720515941896336       -3.4399872135224734      0.20953728961866533-4.631016261142131E-8i
-5.042457640623457        -5                       2.3300053210611478-5.018606104067587E-7i
-2.9295160434675673       -3.174123660046112       0.06013754805523631-1.3285773846800529E-8i
-2.8609423681703126       -3.291846624440067       0.10969828902177121-2.4221331119462187E-8i
-2.788834344275164        -3.1744349914859957      0.053400404961491725-1.1787844978621914E-8i
-2.712320227954433        -3.3040500992815858      0.10148723570638023-2.2391821293179685E-8i
-2.6501441828832815       -3.1778274360194896      0.04879990093656005-1.0765513514841068E-8i
-3.1389422675523804       -3.05                    0
-2.999433722327826        -3.05                    0
-3.419811435321614        -2.9499999999999997      0
-3.491034794537374        -2.8248668121246534      0.5128622134452409-2.6237012696830103E-7i
-3.8424544789029103       -2.7017053637033537      1.0759967566997037-4.6502947340076106E-7i
-3.7031937533210537       -2.6912670462782935      1.0874773577423509-5.033144485685707E-7i
-3.5669169823143316       -2.7024120812551278      1.0202935358730711-5.038539274039024E-7i
-3.2802272951044107       -2.95                    0
-3.351582278806454        -2.8237438099054373      0.5119593039059959-2.7902968643109123E-7i
-3.140643154887207        -2.95                    0
-3.214004570064936        -2.8243741702708505      0.5067777388430493-2.933509679471329E-7i
-4.051911121551851        -2.5553139004778855      1.7969164411316267-7.012552386510678E-7i
-3.914940368314232        -2.598257061542653       1.5409859709610143-6.433757229639196E-7i
-4.119632617598479        -2.405492750458549       2.4660763792426965-9.362851027270179E-7i
-6.16029452749561         -3.2346002321036105      4.252232676375969-9.005344987887167E-7i
-5.816721830580661        -2.9471138010450977      4.158865538120327-9.14015930405095E-7i
-6.595255385681531        -2.976512264361598       4.903344984492096-1.0049155782284813E-6i
-7.062834771155824        -2.6677000865278004      5.53423511419615-1.0909698091256542E-6i
-7.530703186746606        -2.3622358759119138      6.0694402546172475-1.1531238173316855E-6i
-8                        -2.0588235294117663      6.530136064907974-1.20429949677324E-6i
-5.135665544273657        -2.3961678400201234      4.039246953766727-1.0341850931216399E-6i
-5.407688822873708        -2.5558574080670624      4.150127073344158-9.877395017920475E-7i
-5.71333353437858         -2.6719092804294733      4.39951402967592-9.888262490879406E-7i
-4.980056817845842        -2.1467444775723474      4.428875525440554-1.2053476277517487E-6i
-4.227438392563223        -2.2481668197700686      3.167644582991757-1.1505107170101575E-6i
-4.37127972762371         -2.1198272129662477      3.7650405484063447-1.2891782140184565E-6i
-4.563142592922084        -2.013233584382163       4.312467632687813-1.3690190086493298E-6i